file 78909885 1281927482                                        
version 2
run AimdCC-1-20100816-02:30:10-4696
attr configname AimdCC
attr datetime 20100816-02:30:10
attr experiment AimdCC
attr inifile D:/Developement/Oversim2/multic/simulations/omnetpp.ini
attr iterationvars ""
attr iterationvars2 $repetition=1
attr measurement ""
attr network oversim.underlay.simpleunderlay.SimpleUnderlayNetwork
attr processid 4696
attr repetition 1
attr replication #1
attr resultdir results
attr runnumber 1
attr seedset 1

vector 1  SimpleUnderlayNetwork.globalObserver.globalStatistics  incoming_bytes  ETV
vector 2  SimpleUnderlayNetwork.globalObserver.globalStatistics  drops  ETV
vector 3  SimpleUnderlayNetwork.globalObserver.globalStatistics  delayed_acks  ETV
vector 4  SimpleUnderlayNetwork.globalObserver.globalStatistics  9rateOf1To0  ETV
vector 5  SimpleUnderlayNetwork.globalObserver.globalStatistics  max9RateOf1To0  ETV
vector 6  SimpleUnderlayNetwork.globalObserver.globalStatistics  9rateOf1To1  ETV
vector 7  SimpleUnderlayNetwork.globalObserver.globalStatistics  max9RateOf1To1  ETV
vector 8  SimpleUnderlayNetwork.globalObserver.globalStatistics  9rateOf1To2  ETV
vector 9  SimpleUnderlayNetwork.globalObserver.globalStatistics  max9RateOf1To2  ETV
vector 10  SimpleUnderlayNetwork.globalObserver.globalStatistics  9rateOf1To3  ETV
vector 11  SimpleUnderlayNetwork.globalObserver.globalStatistics  max9RateOf1To3  ETV
vector 12  SimpleUnderlayNetwork.globalObserver.globalStatistics  9rateOf1To4  ETV
vector 13  SimpleUnderlayNetwork.globalObserver.globalStatistics  max9RateOf1To4  ETV
vector 14  SimpleUnderlayNetwork.globalObserver.globalStatistics  9rateOf1To5  ETV
vector 15  SimpleUnderlayNetwork.globalObserver.globalStatistics  max9RateOf1To5  ETV
vector 16  SimpleUnderlayNetwork.globalObserver.globalStatistics  9rateOf1To6  ETV
vector 17  SimpleUnderlayNetwork.globalObserver.globalStatistics  max9RateOf1To6  ETV
vector 18  SimpleUnderlayNetwork.globalObserver.globalStatistics  9rateOf1To7  ETV
vector 19  SimpleUnderlayNetwork.globalObserver.globalStatistics  max9RateOf1To7  ETV
vector 20  SimpleUnderlayNetwork.globalObserver.globalStatistics  9rateOf1To8  ETV
vector 21  SimpleUnderlayNetwork.globalObserver.globalStatistics  max9RateOf1To8  ETV
vector 22  SimpleUnderlayNetwork.globalObserver.globalStatistics  9rateOf1To9  ETV
vector 23  SimpleUnderlayNetwork.globalObserver.globalStatistics  max9RateOf1To9  ETV
vector 24  SimpleUnderlayNetwork.globalObserver.globalStatistics  1rate  ETV
vector 25  SimpleUnderlayNetwork.globalObserver.globalStatistics  max2Rate  ETV
vector 26  SimpleUnderlayNetwork.globalObserver.globalStatistics  timetotimeouts  ETV
vector 27  SimpleUnderlayNetwork.globalObserver.globalStatistics  "GlobalNodeList: Number of nodes"  ETV
vector 28  SimpleUnderlayNetwork.globalObserver.globalStatistics  "GlobalNodeList: Number of bootstrapped malicious nodes"  ETV
1	2899 654481 2942 631539350 17 26862 26846 0 89252 1223250706 56243183567340
2	657380 547127 2942 631539350 17 26862 26846 0 3264 7698 17688772
3	1204507 547101 2942 631539350 17 26862 26846 0 6 16510 26688
4	1751608 627643 2943 631539351 17 26862 26846 0 49500 41461500 71304750000
5	2379251 919325 2943 631539351 17 26862 26846 1500 48000 54630142.285681 121141935866.61
6	3298576 653507 2943 631539351 17 26862 26846 0 51000 606891000 14760985500000
7	3952083 919864 2943 631539351 17 26862 26846 1500 59267.720874577 764351134.36137 24630418996383
8	4871947 653611 2943 631539351 17 26862 26846 0 51000 533508000 11308576500000
9	5525558 919943 2943 631515547 17 26861 26845 1500 51000 572727920.48303 12984474115833
10	6445501 654498 2943 631515547 17 26861 26845 0 42000 43669500 91325250000
11	7099999 945864 2943 631515547 17 26861 26845 1500 49500 57956740.986758 204674160146.91
12	8045863 654451 2943 631515547 17 26861 26845 0 21000 43422000 80887500000
13	8700314 946219 2943 631515547 17 26861 26845 1500 21000 55972599.753409 133744177590.82
14	9646533 666288 2943 631515547 17 26861 26845 0 45000 257731500 2755604250000
15	10312821 946671 2943 631515547 17 26861 26845 1500 48000 278749520.83846 3168981846686.6
16	11259492 679987 2943 631515547 17 26861 26845 0 55500 546856500 12180017250000
17	11939479 946754 2943 631515547 17 26861 26845 1500 52500 606701151.61837 15231889127076
18	12886233 654463 2943 631515547 17 26861 26845 0 57000 106126500 490182750000
19	13540696 946806 2943 631515547 17 26861 26845 1500 57000 127741658.70859 671094253459.45
20	14487502 680484 2943 631515547 17 26861 26845 0 46500 646074000 16721707500000
21	15167986 946685 2943 631515547 17 26861 26845 1500 51186.676108336 859725014.38069 29612881375067
22	16114671 678453 2943 631515547 17 26861 26845 0 46500 426724500 7549080750000
23	16793124 946641 2943 631515547 17 26861 26845 1500 45000 456749591.63794 8703047005350.9
24	17739765 707517 2943 631515547 17 26861 26845 0 886500 5655375000 1.223044029e+015
25	18447282 946694 2943 631515547 17 26861 26845 28500 870000 6463984451.9872 1.5908985406666e+015
26	19393976 1027926 17079 631539350 19 26862 26844 0.00084501620593577 1.305114638448 266.51730942473 78.116219488469
27	20421902 12021 550253 631255364 50 26850 537 20 20 10740 214800
28	20433923 11484 550253 631255364 50 26850 537 0 0 0 0
1	20445407 682666 631562898 1278296284 26863 53707 26845 42400 50774 1253000719 58515867891187
2	21128073 575298 631562898 1278296284 26863 53707 26845 0 16 691 4229
3	21703371 575286 631562898 1278296284 26863 53707 26845 0 6 16861 27191
4	22278657 655821 631562899 1278296285 26863 53707 26845 1500 3000 40705500 62372250000
5	22934478 947645 631562899 1278296285 26863 53707 26845 1500 3471.180063732 55034596.81562 116572733488.03
6	23882123 682624 631562899 1278296285 26863 53707 26845 6000 40500 626748000 15324835500000
7	24564747 948089 631562899 1278296285 26863 53707 26845 11626.904955679 42007.743914586 703502520.78715 19291008618590
8	25512836 682207 631562899 1278296285 26863 53707 26845 4500 37500 545863500 11829116250000
9	26195043 948169 631539351 1278296285 26862 53707 26846 8333.4842596172 38871.700325999 590888104.94673 13903840953272
10	27143212 682691 631539351 1278296285 26862 53707 26846 1500 3000 40324500 60653250000
11	27825903 973902 631539351 1278296285 26862 53707 26846 1500 3138.9195724176 50072412.506166 95462872438.851
12	28799805 682691 631539351 1278296285 26862 53707 26846 1500 3000 40512000 61497000000
13	29482496 974232 631539351 1278296285 26862 53707 26846 1500 3418.4128203882 53284420.44439 108977113107.55
14	30456728 694288 631539351 1278296285 26862 53707 26846 3000 18000 251356500 2588690250000
15	31151016 975022 631539351 1278296285 26862 53707 26846 4019.7973219198 18649.077361544 272235337.50283 2989902254377.6
16	32126038 707620 631539351 1278271764 26862 53706 26845 4500 37500 493792500 9923555250000
17	32833658 974997 631539351 1278271764 26862 53706 26845 5542.7414480835 38796.126627477 524463322.6003 11197240164385
18	33808655 682667 631539351 1278271764 26862 53706 26845 1500 10500 118038000 586044000000
19	34491322 974936 631539351 1278271764 26862 53706 26845 1925.5467562268 10513.641323203 139375007.7927 783712664140.86
20	35466258 709437 631539351 1278271764 26862 53706 26845 6000 52500 678699000 18097686000000
21	36175695 974939 631539351 1278271764 26862 53706 26845 16413.720169916 59165.638815999 996048336.96862 39460555460671
22	37150634 708027 631539351 1278271764 26862 53706 26845 4500 33000 436662000 7753288500000
23	37858661 974998 631539351 1278271764 26862 53706 26845 5684.2832056471 33046.500908147 461256935.77568 8615057082743.8
24	38833659 736355 631539351 1278271764 26862 53706 26845 135000 288000 5860462500 1.29366803025e+015
25	39570014 974967 631539351 1278271764 26862 53706 26845 185371.61833356 303669.84019964 6711405808.9666 1.6911203896848e+015
26	40544981 1082365 631562898 1278296284 26863 53707 26845 0.00041775067691181 0.00084498458788694 15.622188514358 0.0094718262247329
27	41627346 12582 632441106 1278126386 26900 53700 537 20 20 10740 214800
28	41639928 12045 632441106 1278126386 26900 53700 537 0 0 0 0
1	41651973 697970 1278320567 1922996908 53708 80552 26845 41923 51198 1248975899 58147402945423
2	42349943 590597 1278320567 1922996908 53708 80552 26845 0 14 743 4305
3	42940540 590590 1278320567 1922996908 53708 80552 26845 0 6 16851 27295
4	43531130 671125 1278320568 1922996909 53708 80552 26845 1500 3000 40617000 61974000000
5	44202255 962971 1278320568 1922996909 53708 80552 26845 1500 3548.8019977806 53838434.541226 111502627268.1
6	45165226 697936 1278320568 1922996909 53708 80552 26845 6000 45000 666438000 17345173500000
7	45863162 963507 1278320568 1922996909 53708 80552 26845 11278.292444162 47023.076818064 810861056.92581 25659470125665
8	46826669 697443 1278320568 1922996909 53708 80552 26845 6000 40500 539467500 11761422750000
9	47524112 963464 1278320568 1922996909 53708 80552 26845 7237.8351041093 40657.305218325 582679970.48137 13838606051764
10	48487576 697970 1278320568 1922996909 53708 80552 26845 1500 1500 40267500 60401250000
11	49185546 989118 1278320568 1922996909 53708 80552 26845 1500 2881.1790003932 49540132.261995 93187833196.257
12	50174664 697970 1278320568 1922996909 53708 80552 26845 1500 3000 40747500 62561250000
13	50872634 989752 1278320568 1922996909 53708 80552 26845 1500 4196.7227787985 52404046.543048 105737938535.04
14	51862386 707400 1278320568 1922996909 53708 80552 26845 1500 19500 246664500 2505156750000
15	52569786 990319 1278320568 1922996909 53708 80552 26845 2307.4035474572 20640.099472302 267532301.27374 2899078302660.3
16	53560105 724609 1278296285 1922996909 53707 80552 26846 7500 36000 535698000 11284893000000
17	54284714 990331 1278296285 1922996909 53707 80552 26846 8614.2562593824 36283.890220133 575692919.90916 13090399026383
18	55275045 697996 1278296285 1922996909 53707 80552 26846 1500 9000 110044500 503313750000
19	55973041 990315 1278296285 1922996909 53707 80552 26846 1764.5800314348 9000.7497471742 131411617.78132 689451263991.07
20	56963356 724802 1278296285 1922996909 53707 80552 26846 4500 48000 684451500 18268485750000
21	57688158 990392 1278296285 1922996909 53707 80552 26846 14168.361719039 52937.978748885 921684556.06432 33227151685518
22	58678550 723687 1278296285 1922996909 53707 80552 26846 3000 34500 487750500 9515373750000
23	59402237 990154 1278296285 1922973155 53707 80551 26845 4302.8013910531 35933.569557687 521917226.58554 10932135918131
24	60392391 751660 1278296285 1922973155 53707 80551 26845 153000 279000 5842417500 1.28260071675e+015
25	61144051 990172 1278296285 1922973155 53707 80551 26845 190463.87093782 302165.73709795 6638997288.226 1.6521760609776e+015
26	62134223 1097618 1278320567 1922996908 53708 80552 26845 0.00027787411452631 0.0004177426957302 9.0866615852694 0.0031184119697919
27	63231841 12888 1279350188 1922949313 53750 80550 537 20 20 10740 214800
28	63244729 12351 1279350188 1922949313 53750 80550 537 0 0 0 0
1	63257080 505622 1923020441 2388583230 80553 99999 19447 42294 50297 901973027 41861537768515
2	63762702 427843 1923020441 2388583230 80553 99999 19447 0 19 530 3572
3	64190545 427834 1923020441 2388583230 80553 99999 19447 0 5 12199 19759
4	64618379 486175 1923020442 2388583231 80553 99999 19447 1500 3000 29217000 43965000000
5	65104554 697544 1923020442 2388583231 80553 99999 19447 1500 3163.0812086735 39290920.939405 81807596764.344
6	65802098 505499 1923020442 2388583231 80553 99999 19447 3000 39000 416614500 9644969250000
7	66307597 697950 1923020442 2388583231 80553 99999 19447 10033.456371654 40009.555008691 468893501.24616 12296049245328
8	67005547 505510 1923020442 2388583231 80553 99999 19447 6000 39000 377275500 7707462750000
9	67511057 698047 1923020442 2388583231 80553 99999 19447 9368.4311947095 39313.115883978 403293425.6667 8804400022315.6
10	68209104 505622 1923020442 2388583231 80553 99999 19447 1500 3000 29250000 44113500000
11	68714726 716689 1923020442 2388583231 80553 99999 19447 1500 3353.6832099273 36442042.989261 69929587299.9
12	69431415 505622 1923020442 2388583231 80553 99999 19447 1500 1500 29170500 43755750000
13	69937037 716834 1923020442 2388583231 80553 99999 19447 1500 2981.5375993737 36884572.787078 71426257077.307
14	70653871 513305 1923020442 2388583231 80553 99999 19447 3000 16500 176883000 1744987500000
15	71167176 717387 1923020442 2388583231 80553 99999 19447 3848.1365978163 17690.614930965 192052085.29942 2029104405033.1
16	71884563 524999 1923020442 2388583231 80553 99999 19447 4500 33000 391480500 8232734250000
17	72409562 717364 1923020442 2388583231 80553 99999 19447 9969.1865975575 33851.571980186 420278802.52126 9478516461038.9
18	73126926 506137 1923020442 2388583231 80553 99999 19447 1500 13500 88026000 483241500000
19	73633063 717456 1923020442 2388583231 80553 99999 19447 1510.5481078101 14933.290910692 103471396.2462 631387063318.58
20	74350519 525016 1923020442 2388583231 80553 99999 19447 6000 49500 476653500 12382301250000
21	74875535 717344 1923020442 2388583231 80553 99999 19447 15285.394561507 56143.223274136 679694970.49304 25380693583710
22	75592879 524007 1923020442 2388583231 80553 99999 19447 6000 37500 348855000 6933258000000
23	76116886 717543 1922996909 2388583231 80552 99999 19448 6580.2841889982 37852.243020544 374623220.52901 8006307485717.3
24	76834429 544544 1922996909 2388583231 80552 99999 19448 148500 283500 4221283500 9.2754167175e+014
25	77378973 717437 1922996909 2388583231 80552 99999 19448 193259.50234822 301115.04130622 4789133652.3858 1.1906369843023e+015
26	78096410 795190 1923020441 2388583230 80553 99999 19447 0.00022376571122536 0.00027787068450468 4.8390662453994 0.0012088247942361
27	78891600 9337 1924141853 2388607166 80600 100000 389 20 20 7780 155600
28	78900937 8948 1924141853 2388607166 80600 100000 389 0 0 0 0
