file 140710136 1283932053                                       
version 2
run QLearnCC-0-20100907-16:04:32-4416
attr configname QLearnCC
attr datetime 20100907-16:04:32
attr experiment QLearnCC
attr inifile D:/Developement/Oversim2/multic/simulations/omnetpp.ini
attr iterationvars ""
attr iterationvars2 $repetition=0
attr measurement ""
attr network oversim.underlay.simpleunderlay.SimpleUnderlayNetwork
attr processid 4416
attr repetition 0
attr replication #0
attr resultdir results
attr runnumber 0
attr seedset 0
vector 1  SimpleUnderlayNetwork.globalObserver.globalStatistics  incoming_bytes  ETV
1	2905 661587 8011 1184979007 19 26864 26846 9646 92538 2288641177 1.9542658083522e+014
1	17656870 697970 1185023457 2406278667 26865 53709 26845 83846 91478 2368264879 2.0895535144447e+014
1	36264590 697970 2406325020 3651606930 53710 80554 26845 86814 92697 2415453217 2.1735287120295e+014
1	54955015 705397 3651653482 4902130826 80555 107400 26846 87291 93280 2425120735 2.1908657286807e+014
1	73840456 724815 4902177627 6157392848 107401 134245 26845 87715 93651 2435186177 2.2091806532322e+014
1	93228795 724815 6157439897 7409345440 134246 161090 26845 87344 93227 2428955603 2.1978906749826e+014
1	112612759 724815 7409392247 8662732455 161091 187935 26845 87238 93863 2431755381 2.2029441504773e+014
1	131998223 325728 8662779102 9226714453 187936 199999 12064 87874 93174 1094298685 99267668347175
vector 2  SimpleUnderlayNetwork.globalObserver.globalStatistics  drops  ETV
2	664492 569834 8011 1184979007 19 26864 26846 0 1955 828095 662869669
2	18354840 602170 1185023457 2406278667 26865 53709 26845 0 53 253203 3751993
2	36962560 601118 2406325020 3651606930 53710 80554 26845 0 52 234605 3179013
2	55660412 611042 3651653482 4902130826 80555 107400 26846 0 46 274000 4084546
2	74565271 626283 4902177627 6157392848 107401 134245 26845 0 42 209002 2583320
2	93953610 625101 6157439897 7409345440 134246 161090 26845 0 45 190900 2156042
2	113337574 625103 7409392247 8662732455 161091 187935 26845 0 47 191026 2160668
2	132323951 280630 8662779102 9226714453 187936 199999 12064 0 38 81612 902374
vector 3  SimpleUnderlayNetwork.globalObserver.globalStatistics  delayed_acks  ETV
3	1234326 554209 8011 1184979007 19 26864 26846 0 12 58680 190672
3	18957010 590594 1185023457 2406278667 26865 53709 26845 0 11 62131 208871
3	37563678 590598 2406325020 3651606930 53710 80554 26845 0 11 64527 222597
3	56271454 598018 3651653482 4902130826 80555 107400 26846 0 11 63896 218748
3	75191554 617451 4902177627 6157392848 107401 134245 26845 0 13 63883 220113
3	94578711 617440 6157439897 7409345440 134246 161090 26845 0 12 62764 212602
3	113962677 617448 7409392247 8662732455 161091 187935 26845 0 12 64133 222063
3	132604581 277482 8662779102 9226714453 187936 199999 12064 0 11 33020 124626
vector 4  SimpleUnderlayNetwork.globalObserver.globalStatistics  9rateOf1To0  ETV
4	1788535 661585 8012 1184979008 19 26864 26846 1500 39000 970498500 35371635750000
4	19547604 697970 1185023458 2406278668 26865 53709 26845 13500 39000 843084000 27018355500000
4	38154276 697970 2406325021 3651606931 53710 80554 26845 15000 39000 848008500 27042306750000
4	56869472 705370 3651653483 4902083920 80555 107399 26845 18000 39000 906094500 30913773750000
4	75809005 724842 4902130827 6157392849 107400 134245 26846 18000 39000 894840000 30194698500000
4	95196151 724815 6157439898 7409345441 134246 161090 26845 15000 39000 928216500 32352927750000
4	114580125 724815 7409392248 8662732456 161091 187935 26845 13500 39000 920506500 31796471250000
4	132882063 325728 8662779103 9226714454 187936 199999 12064 19500 39000 422761500 14952296250000
vector 5  SimpleUnderlayNetwork.globalObserver.globalStatistics  max9RateOf1To0  ETV
5	2450120 661586 8012 1184979008 19 26864 26846 3000 39000 1011298500 38191668750000
5	20245574 697970 1185023458 2406278668 26865 53709 26845 19500 39000 878352000 29322198000000
5	38852246 697970 2406325021 3651606931 53710 80554 26845 18000 39000 856858500 27592121250000
5	57574842 705370 3651653483 4902083920 80555 107399 26845 24000 39000 918529500 31748744250000
5	76533847 724842 4902130827 6157392849 107400 134245 26846 21000 39000 906606000 30973824000000
5	95920966 724815 6157439898 7409345441 134246 161090 26845 19500 39000 941454000 33237310500000
5	115304940 724815 7409392248 8662732456 161091 187935 26845 25500 39000 933987000 32694840000000
5	133207791 325728 8662779103 9226714454 187936 199999 12064 24000 39000 430512000 15480481500000
vector 6  SimpleUnderlayNetwork.globalObserver.globalStatistics  9rateOf1To1  ETV
6	3111706 661584 8012 1184979008 19 26864 26846 1500 39000 957345000 34462813500000
6	20943544 697968 1185023458 2406278668 26865 53709 26845 9000 39000 918462000 31914220500000
6	39550216 697970 2406325021 3651606931 53710 80554 26845 15000 39000 961114500 34672970250000
6	58280212 705370 3651653483 4902083920 80555 107399 26845 16500 39000 967681500 35107836750000
6	77258689 724842 4902130827 6157392849 107400 134245 26846 18000 39000 984000000 36251077500000
6	96645781 724815 6157439898 7409345441 134246 161090 26845 15000 39000 979026000 35894718000000
6	116029755 724815 7409392248 8662732456 161091 187935 26845 15000 39000 974788500 35591244750000
6	133533519 325728 8662779103 9226714454 187936 199999 12064 16500 39000 440488500 16169424750000
vector 7  SimpleUnderlayNetwork.globalObserver.globalStatistics  max9RateOf1To1  ETV
7	3773290 661586 8012 1184979008 19 26864 26846 3000 39000 992359500 36874023750000
7	21641512 697970 1185023458 2406278668 26865 53709 26845 31500 39000 1007778000 37886013000000
7	40248186 697970 2406325021 3651606931 53710 80554 26845 30000 39000 995781000 37021477500000
7	58985582 705370 3651653483 4902083920 80555 107399 26845 28500 39000 990283500 36662847750000
7	77983531 724842 4902130827 6157392849 107400 134245 26846 31500 39000 1010134500 38055251250000
7	97370596 724815 6157439898 7409345441 134246 161090 26845 28500 39000 1000642500 37385340750000
7	116754570 724815 7409392248 8662732456 161091 187935 26845 27000 39000 997873500 37177152750000
7	133859247 325728 8662779103 9226714454 187936 199999 12064 31500 39000 451636500 16938771750000
vector 8  SimpleUnderlayNetwork.globalObserver.globalStatistics  9rateOf1To2  ETV
8	4434876 652015 8012 1184934153 19 26863 26845 1500 39000 284869500 4252430250000
8	22339482 686446 1184979008 2406278668 26864 53709 26846 1500 30000 326871000 5812416000000
8	40946156 697970 2406325021 3651606931 53710 80554 26845 15000 39000 861777000 28253961000000
8	59690952 705370 3651653483 4902083920 80555 107399 26845 15000 39000 980283000 35975034000000
8	78708373 724842 4902130827 6157392849 107400 134245 26846 19500 39000 983370000 36204007500000
8	98095411 724815 6157439898 7409345441 134246 161090 26845 16500 39000 978082500 35818859250000
8	117479385 724815 7409392248 8662732456 161091 187935 26845 16500 39000 978312000 35841838500000
8	134184975 325728 8662779103 9226714454 187936 199999 12064 18000 39000 439792500 16114812750000
vector 9  SimpleUnderlayNetwork.globalObserver.globalStatistics  max9RateOf1To2  ETV
9	5086891 652015 8012 1184934153 19 26863 26845 1500 39000 284938500 4257677250000
9	23025928 686447 1184979008 2406278668 26864 53709 26846 1500 30000 327052500 5820225750000
9	41644126 697970 2406325021 3651606931 53710 80554 26845 18000 39000 875073000 29134327500000
9	60396322 705370 3651653483 4902083920 80555 107399 26845 31500 39000 1004148000 37617021000000
9	79433215 724842 4902130827 6157392849 107400 134245 26846 31500 39000 1008507000 37940314500000
9	98820226 724815 6157439898 7409345441 134246 161090 26845 30000 39000 1000296000 37350216000000
9	118204200 724815 7409392248 8662732456 161091 187935 26845 25500 39000 1001710500 37451706750000
9	134510703 325728 8662779103 9226714454 187936 199999 12064 30000 39000 449806500 16805670750000
vector 10  SimpleUnderlayNetwork.globalObserver.globalStatistics  9rateOf1To3  ETV
10	5738906 681815 8012 1184934153 19 26863 26845 1500 39000 394680000 7555063500000
10	23712375 714402 1184979008 2406278668 26864 53709 26846 1500 24000 312687000 4699332000000
10	42342096 724815 2406325021 3651606931 53710 80554 26845 16500 39000 893400000 30736611000000
10	61101692 732215 3651653483 4902083920 80555 107399 26845 15000 39000 977235000 35750299500000
10	80158057 751688 4902130827 6157392849 107400 134245 26846 15000 39000 943248000 33482871000000
10	99545041 751660 6157439898 7409345441 134246 161090 26845 15000 39000 984682500 36302825250000
10	118929015 751660 7409392248 8662732456 161091 187935 26845 18000 39000 974973000 35604265500000
10	134836431 337792 8662779103 9226714454 187936 199999 12064 18000 39000 423640500 14958195750000
vector 11  SimpleUnderlayNetwork.globalObserver.globalStatistics  max9RateOf1To3  ETV
11	6420721 681815 8012 1184934153 19 26863 26845 1500 39000 394806000 7564077000000
11	24426777 714403 1184979008 2406278668 26864 53709 26846 1500 24000 312693000 4699845000000
11	43066911 724815 2406325021 3651606931 53710 80554 26845 16500 39000 918246000 32445918000000
11	61833907 732215 3651653483 4902083920 80555 107399 26845 31500 39000 1000020000 37315435500000
11	80909745 751688 4902130827 6157392849 107400 134245 26846 22500 39000 961827000 34744995000000
11	100296701 751660 6157439898 7409345441 134246 161090 26845 28500 39000 1008403500 37945248750000
11	119680675 751660 7409392248 8662732456 161091 187935 26845 28500 39000 998554500 37230149250000
11	135174223 337792 8662779103 9226714454 187936 199999 12064 28500 39000 430590000 15422728500000
vector 12  SimpleUnderlayNetwork.globalObserver.globalStatistics  9rateOf1To4  ETV
12	7102536 664533 8012 1184934153 19 26863 26845 1500 39000 100297500 1050243750000
12	25141180 697996 1184979008 2406278668 26864 53709 26846 1500 7500 46806000 91638000000
12	43791726 698126 2406325021 3651606931 53710 80554 26845 1500 15000 51633000 138942000000
12	62566122 705370 3651653483 4902083920 80555 107399 26845 1500 9000 52081500 124706250000
12	81661433 724815 4902130827 6157345764 107400 134244 26845 1500 6000 47305500 94659750000
12	101048361 724852 6157392849 7409345441 134245 161090 26846 1500 10500 64170000 224077500000
12	120432335 724822 7409392248 8662732456 161091 187935 26845 1500 10500 47040000 96120000000
12	135512015 325728 8662779103 9226714454 187936 199999 12064 1500 7500 21753000 44509500000
vector 13  SimpleUnderlayNetwork.globalObserver.globalStatistics  max9RateOf1To4  ETV
13	7767069 664533 8012 1184934153 19 26863 26845 1500 39000 100407000 1061352000000
13	25839176 697996 1184979008 2406278668 26864 53709 26846 1500 7500 46786500 91554750000
13	44489852 698125 2406325021 3651606931 53710 80554 26845 1500 15000 51579000 138636000000
13	63271492 705370 3651653483 4902083920 80555 107399 26845 1500 9000 52035000 124488000000
13	82386248 724815 4902130827 6157345764 107400 134244 26845 1500 6000 47263500 94448250000
13	101773213 724852 6157392849 7409345441 134245 161090 26846 1500 10500 64113000 223789500000
13	121157157 724822 7409392248 8662732456 161091 187935 26845 1500 10500 46995000 95908500000
13	135837743 325728 8662779103 9226714454 187936 199999 12064 1500 7500 21714000 44316000000
vector 14  SimpleUnderlayNetwork.globalObserver.globalStatistics  9rateOf1To5  ETV
14	8431602 671933 8012 1184934153 19 26863 26845 1500 39000 205894500 2310266250000
14	26537172 724842 1184979008 2406278668 26864 53709 26846 10500 34500 587608500 13407347250000
14	45187977 724812 2406325021 3651606931 53710 80554 26845 9000 34500 573721500 13037487750000
14	63976862 732215 3651653483 4902083920 80555 107399 26845 10500 33000 603577500 13905060750000
14	83111063 751600 4902130827 6157345764 107400 134244 26845 7500 31500 538912500 11344943250000
14	102498065 750426 6157392849 7409345441 134245 161090 26846 4500 31500 447286500 7810953750000
14	121881979 751169 7409392248 8662732456 161091 187935 26845 4500 27000 465315000 8421399000000
14	136163471 337764 8662779103 9226714454 187936 199999 12064 9000 28500 221077500 4220772750000
vector 15  SimpleUnderlayNetwork.globalObserver.globalStatistics  max9RateOf1To5  ETV
15	9103535 671934 8012 1184934153 19 26863 26845 1500 39000 205965000 2315344500000
15	27262014 724815 1184979008 2406232700 26864 53708 26845 10500 34500 588778500 13466274750000
15	45912789 724839 2406278668 3651606931 53709 80554 26846 9000 34500 574522500 13079792250000
15	64709077 732215 3651653483 4902083920 80555 107399 26845 10500 33000 603760500 13914272250000
15	83862663 751600 4902130827 6157345764 107400 134244 26845 7500 31500 539002500 11349524250000
15	103248491 750426 6157392849 7409345441 134245 161090 26846 4500 31500 447298500 7811394750000
15	122633148 751169 7409392248 8662732456 161091 187935 26845 4500 27000 465325500 8421909750000
15	136501235 337764 8662779103 9226714454 187936 199999 12064 9000 28500 221098500 4221578250000
vector 16  SimpleUnderlayNetwork.globalObserver.globalStatistics  9rateOf1To6  ETV
16	9775469 677980 8012 1184934153 19 26863 26845 1500 39000 301446000 4729302000000
16	27986829 714063 1184979008 2406232700 26864 53708 26845 1500 24000 309156000 4716175500000
16	46637628 724842 2406278668 3651606931 53709 80554 26846 15000 39000 760921500 22076120250000
16	65441292 732215 3651653483 4902083920 80555 107399 26845 18000 39000 967722000 35096787000000
16	84614263 751660 4902130827 6157345764 107400 134244 26845 12000 39000 955857000 34285054500000
16	103998917 751688 6157392849 7409345441 134245 161090 26846 16500 39000 971350500 35331495750000
16	123384317 751660 7409392248 8662732456 161091 187935 26845 16500 39000 944085000 33495822000000
16	136838999 337792 8662779103 9226714454 187936 199999 12064 16500 39000 441622500 16250357250000
vector 17  SimpleUnderlayNetwork.globalObserver.globalStatistics  max9RateOf1To6  ETV
17	10453449 677979 8012 1184934153 19 26863 26845 1500 39000 301531500 4736630250000
17	28700892 714064 1184979008 2406232700 26864 53708 26845 1500 24000 309187500 4717406250000
17	47362470 724842 2406278668 3651606931 53709 80554 26846 15000 39000 764112000 22266324000000
17	66173507 732215 3651653483 4902083920 80555 107399 26845 28500 39000 990378000 36649282500000
17	85365923 751660 4902130827 6157345764 107400 134244 26845 24000 39000 976873500 35722203750000
17	104750605 751688 6157392849 7409345441 134245 161090 26846 28500 39000 991686000 36725206500000
17	124135977 751660 7409392248 8662732456 161091 187935 26845 21000 39000 962173500 34728090750000
17	137176791 337792 8662779103 9226714454 187936 199999 12064 30000 39000 453099000 17041684500000
vector 18  SimpleUnderlayNetwork.globalObserver.globalStatistics  9rateOf1To7  ETV
18	11131428 681821 8012 1184934153 19 26863 26845 1500 39000 723337500 25253232750000
18	29414956 715724 1184979008 2406232700 26864 53708 26845 1500 39000 413785500 9469748250000
18	48087312 724842 2406278668 3651606931 53709 80554 26846 15000 39000 960510000 34661331000000
18	66905722 732215 3651653483 4902083920 80555 107399 26845 13500 39000 966400500 35002478250000
18	86117583 751660 4902130827 6157345764 107400 134244 26845 18000 39000 973152000 35493574500000
18	105502293 751688 6157392849 7409345441 134245 161090 26846 13500 39000 979905000 35950770000000
18	124887637 751660 7409392248 8662732456 161091 187935 26845 18000 39000 969190500 35201117250000
18	137514583 337792 8662779103 9226714454 187936 199999 12064 19500 39000 437976000 15992226000000
vector 19  SimpleUnderlayNetwork.globalObserver.globalStatistics  max9RateOf1To7  ETV
19	11813249 681821 8012 1184934153 19 26863 26845 1500 39000 745290000 26744377500000
19	30130680 715725 1184979008 2406232700 26864 53708 26845 1500 39000 421246500 9947099250000
19	48812154 724842 2406278668 3651606931 53709 80554 26846 27000 39000 999285000 37309194000000
19	67637937 732215 3651653483 4902083920 80555 107399 26845 27000 39000 988354500 36504528750000
19	86869243 751660 4902130827 6157345764 107400 134244 26845 25500 39000 995985000 37066860000000
19	106253981 751660 6157392849 7409298300 134245 161089 26845 30000 39000 1002888000 37533852000000
19	125639297 751688 7409345441 8662732456 161090 187935 26846 27000 39000 991737000 36746914500000
19	137852375 337792 8662779103 9226714454 187936 199999 12064 28500 39000 447913500 16676979750000
vector 20  SimpleUnderlayNetwork.globalObserver.globalStatistics  9rateOf1To8  ETV
20	12495070 688404 8012 1184934153 19 26863 26845 1500 39000 977532000 35870287500000
20	30846405 724815 1184979008 2406232700 26864 53708 26845 10500 39000 912198000 31463941500000
20	49536996 724842 2406278668 3651606931 53709 80554 26846 15000 39000 955632000 34299018000000
20	68370152 732215 3651653483 4902083920 80555 107399 26845 19500 39000 972954000 35457147000000
20	87620903 751660 4902130827 6157345764 107400 134244 26845 16500 39000 976591500 35729723250000
20	107005641 751660 6157392849 7409298300 134245 161089 26845 16500 39000 984037500 36250089750000
20	126390985 751688 7409345441 8662732456 161090 187935 26846 12000 39000 960988500 34603206750000
20	138190167 337792 8662779103 9226714454 187936 199999 12064 16500 39000 437989500 15982062750000
vector 21  SimpleUnderlayNetwork.globalObserver.globalStatistics  max9RateOf1To8  ETV
21	13183474 688405 8012 1184934153 19 26863 26845 3000 39000 1018336500 38693180250000
21	31571220 724815 1184979008 2406232700 26864 53708 26845 27000 39000 991746000 36781830000000
21	50261838 724842 2406278668 3651606931 53709 80554 26846 27000 39000 990739500 36670011750000
21	69102367 732215 3651653483 4902083920 80555 107399 26845 28500 39000 995091000 36976419000000
21	88372563 751660 4902130827 6157345764 107400 134244 26845 28500 39000 1000981500 37408938750000
21	107757301 751660 6157392849 7409298300 134245 161089 26845 30000 39000 1007686500 37885529250000
21	127142673 751688 7409345441 8662732456 161090 187935 26846 27000 39000 981418500 35991497250000
21	138527959 337792 8662779103 9226714454 187936 199999 12064 31500 39000 447870000 16659792000000
vector 22  SimpleUnderlayNetwork.globalObserver.globalStatistics  9rateOf1To9  ETV
22	13871879 661828 8012 1184934153 19 26863 26845 1500 39000 58815000 375943500000
22	32296035 697972 1184979008 2406232700 26864 53708 26845 1500 10500 54184500 143480250000
22	50986680 697970 2406278668 3651560196 53709 80553 26845 1500 9000 52036500 124251750000
22	69834582 705396 3651606931 4902083920 80554 107399 26846 1500 9000 51603000 127795500000
22	89124223 725232 4902130827 6157345764 107400 134244 26845 1500 12000 60766500 236760750000
22	108508961 724859 6157392849 7409298300 134245 161089 26845 1500 12000 51829500 136194750000
22	127894361 724844 7409345441 8662732456 161090 187935 26846 1500 10500 53161500 141279750000
22	138865751 325795 8662779103 9226714454 187936 199999 12064 1500 13500 29514000 118683000000
vector 23  SimpleUnderlayNetwork.globalObserver.globalStatistics  max9RateOf1To9  ETV
23	14533707 661828 8012 1184934153 19 26863 26845 1500 39000 58711500 378317250000
23	32994007 697972 1184979008 2406232700 26864 53708 26845 1500 10500 54093000 143001000000
23	51684650 697970 2406278668 3651560196 53709 80553 26845 1500 9000 51871500 123437250000
23	70539978 705396 3651606931 4902083920 80554 107399 26846 1500 9000 51435000 126918000000
23	89849455 725230 4902130827 6157345764 107400 134244 26845 1500 12000 60610500 235896750000
23	109233820 724859 6157392849 7409298300 134245 161089 26845 1500 12000 51657000 135315000000
23	128619205 724844 7409345441 8662732456 161090 187935 26846 1500 10500 53032500 140649750000
23	139191546 325795 8662779103 9226714454 187936 199999 12064 1500 13500 29467500 118401750000
vector 24  SimpleUnderlayNetwork.globalObserver.globalStatistics  1rate  ETV
24	15195535 715249 8012 1184934153 19 26863 26845 27000 697500 8439142500 2.78735663025e+015
24	33691979 751660 1184979008 2406232700 26864 53708 26845 157500 351000 6657817500 1.71474086025e+015
24	52382620 751660 2406278668 3651560196 53709 80553 26845 288000 441000 10247643000 3.9368413395e+015
24	71245374 759088 3651606931 4902083920 80554 107399 26846 373500 450000 11117974500 4.60751666175e+015
24	90574685 778505 4902130827 6157345764 107400 134244 26845 360000 454500 11032249500 4.53674935125e+015
24	109958679 778505 6157392849 7409298300 134245 161089 26845 369000 450000 11085907500 4.58134872075e+015
24	129344049 778534 7409345441 8662732456 161090 187935 26846 364500 445500 11098174500 4.59059393925e+015
24	139517341 349856 8662779103 9226714454 187936 199999 12064 382500 450000 5040207000 2.1070207215e+015
vector 25  SimpleUnderlayNetwork.globalObserver.globalStatistics  max2Rate  ETV
25	15910784 715251 8012 1184934153 19 26863 26845 54000 702000 8680714500 2.93993601075e+015
25	34443639 751660 1184979008 2406232700 26864 53708 26845 180000 358500 6943402500 1.85886901575e+015
25	53134280 751660 2406278668 3651560196 53709 80553 26845 313500 444000 10482132000 4.1163643485e+015
25	72004462 759088 3651606931 4902083920 80554 107399 26846 393000 454500 11337208500 4.79021098725e+015
25	91353190 778505 4902130827 6157345764 107400 134244 26845 378000 456000 11251281000 4.71789036e+015
25	110737184 778505 6157392849 7409298300 134245 161089 26845 388500 456000 11303643000 4.762301193e+015
25	130122583 778534 7409345441 8662732456 161090 187935 26846 387000 448500 11317590000 4.773114864e+015
25	139867197 349856 8662779103 9226714454 187936 199999 12064 402000 453000 5139063000 2.1901405635e+015
vector 26  SimpleUnderlayNetwork.globalObserver.globalStatistics  timetotimeouts  ETV
26	16626035 1007048 15519 1184979007 20 26864 26845 0.028335626401959 1.2413576367065 1029.8152815576 74.54866215782
26	35195299 1044052 1185023457 2406278667 26865 53709 26845 0.026070028401332 0.028335438333587 713.5737536793 18.975300827258
26	53885940 1043836 2406325020 3651606930 53710 80554 26845 0.026491385799154 0.029144766457365 755.44180606292 21.276738763523
26	72763550 1051369 3651653482 4902083919 80555 107399 26845 0.029144865383109 0.030689711307498 803.46027208565 24.052287218195
26	92131695 1070836 4902130826 6157392848 107400 134245 26846 0.030689719798492 0.031655739362191 836.9276548365 26.093401263765
26	111515689 1070757 6157439897 7409345440 134246 161090 26845 0.031655842848957 0.031947502473792 854.52949781125 27.201482730933
26	130901117 1070793 7409392247 8662732455 161091 187935 26845 0.031947551055331 0.032478951500609 865.449399758 27.901619310821
26	140217053 481225 8662779102 9226714453 187936 199999 12064 0.032478981400956 0.03312940513405 395.77012374457 12.984019512827
vector 27  SimpleUnderlayNetwork.globalObserver.globalStatistics  "GlobalNodeList: Number of nodes"  ETV
27	17633083 12162 1435197 1184349898 50 26850 537 20 20 10740 214800
27	36239351 12888 1186593098 2405862229 26900 53700 537 20 20 10740 214800
27	54929776 12888 2408172775 3651420486 53750 80550 537 20 20 10740 214800
27	73814919 13037 3653744086 4902130824 80600 107400 537 20 20 10740 214800
27	93202531 13400 4904459175 6155270752 107450 134200 536 20 20 10720 214400
27	112586446 13425 6157628938 7407474816 134250 161050 537 20 20 10740 214800
27	131971910 13425 7409814610 8661092857 161100 187900 537 20 20 10740 214800
27	140698278 6050 8663433786 9226761362 187950 200000 242 20 20 4840 96800
vector 28  SimpleUnderlayNetwork.globalObserver.globalStatistics  "GlobalNodeList: Number of bootstrapped malicious nodes"  ETV
28	17645245 11625 1435197 1184349898 50 26850 537 0 0 0 0
28	36252239 12351 1186593098 2405862229 26900 53700 537 0 0 0 0
28	54942664 12351 2408172775 3651420486 53750 80550 537 0 0 0 0
28	73827956 12500 3653744086 4902130824 80600 107400 537 0 0 0 0
28	93215931 12864 4904459175 6155270752 107450 134200 536 0 0 0 0
28	112599871 12888 6157628938 7407474816 134250 161050 537 0 0 0 0
28	131985335 12888 7409814610 8661092857 161100 187900 537 0 0 0 0
28	140704328 5808 8663433786 9226761362 187950 200000 242 0 0 0 0
