version 2
run AimdCC-3-20100909-19:50:55-5516
attr configname AimdCC
attr datetime 20100909-19:50:55
attr experiment AimdCC
attr inifile D:/Developement/Oversim2/multic/simulations/omnetpp.ini
attr iterationvars $rateIncoming=100000
attr iterationvars2 "$rateIncoming=100000, $repetition=0"
attr measurement $rateIncoming=100000
attr network oversim.underlay.simpleunderlay.SimpleUnderlayNetwork
attr processid 5516
attr rateIncoming 100000
attr repetition 0
attr replication #0
attr resultdir results
attr runnumber 3
attr seedset 3

vector 1  SimpleUnderlayNetwork.globalObserver.globalStatistics  incoming_bytes  ETV
vector 2  SimpleUnderlayNetwork.globalObserver.globalStatistics  drops  ETV
vector 3  SimpleUnderlayNetwork.globalObserver.globalStatistics  delayed_acks  ETV
vector 4  SimpleUnderlayNetwork.globalObserver.globalStatistics  timetotimeouts  ETV
vector 5  SimpleUnderlayNetwork.globalObserver.globalStatistics  9rateOf1To0  ETV
vector 6  SimpleUnderlayNetwork.globalObserver.globalStatistics  max9RateOf1To0  ETV
vector 7  SimpleUnderlayNetwork.globalObserver.globalStatistics  9rateOf1To1  ETV
vector 8  SimpleUnderlayNetwork.globalObserver.globalStatistics  max9RateOf1To1  ETV
vector 9  SimpleUnderlayNetwork.globalObserver.globalStatistics  9rateOf1To2  ETV
vector 10  SimpleUnderlayNetwork.globalObserver.globalStatistics  max9RateOf1To2  ETV
vector 11  SimpleUnderlayNetwork.globalObserver.globalStatistics  9rateOf1To3  ETV
vector 12  SimpleUnderlayNetwork.globalObserver.globalStatistics  max9RateOf1To3  ETV
vector 13  SimpleUnderlayNetwork.globalObserver.globalStatistics  9rateOf1To4  ETV
vector 14  SimpleUnderlayNetwork.globalObserver.globalStatistics  max9RateOf1To4  ETV
vector 15  SimpleUnderlayNetwork.globalObserver.globalStatistics  9rateOf1To5  ETV
vector 16  SimpleUnderlayNetwork.globalObserver.globalStatistics  max9RateOf1To5  ETV
vector 17  SimpleUnderlayNetwork.globalObserver.globalStatistics  9rateOf1To6  ETV
vector 18  SimpleUnderlayNetwork.globalObserver.globalStatistics  max9RateOf1To6  ETV
vector 19  SimpleUnderlayNetwork.globalObserver.globalStatistics  9rateOf1To7  ETV
vector 20  SimpleUnderlayNetwork.globalObserver.globalStatistics  max9RateOf1To7  ETV
vector 21  SimpleUnderlayNetwork.globalObserver.globalStatistics  9rateOf1To8  ETV
vector 22  SimpleUnderlayNetwork.globalObserver.globalStatistics  max9RateOf1To8  ETV
vector 23  SimpleUnderlayNetwork.globalObserver.globalStatistics  9rateOf1To9  ETV
vector 24  SimpleUnderlayNetwork.globalObserver.globalStatistics  max9RateOf1To9  ETV
vector 25  SimpleUnderlayNetwork.globalObserver.globalStatistics  1rate  ETV
vector 26  SimpleUnderlayNetwork.globalObserver.globalStatistics  max2Rate  ETV
vector 27  SimpleUnderlayNetwork.globalObserver.globalStatistics  "GlobalNodeList: Number of nodes"  ETV
vector 28  SimpleUnderlayNetwork.globalObserver.globalStatistics  "GlobalNodeList: Number of bootstrapped malicious nodes"  ETV
1	50603767	6019	15317
1	50611535	6020	14787
1	50619291	6021	14628
1	50627141	6022	14893
1	50634839	6023	14734
1	50642684	6024	15105
1	50650464	6025	14787
1	50658288	6026	14946
1	50666225	6027	15158
1	50674090	6028	14946
1	50681965	6029	14946
1	50689854	6030	15052
1	50697670	6031	15105
1	50705535	6032	14893
1	50713236	6033	14734
1	50721040	6034	15052
1	50728971	6035	15052
1	50736888	6036	15105
1	50744847	6037	15264
1	50752778	6038	15158
1	50760554	6039	14734
1	50768462	6040	15052
1	50776421	6041	15317
1	50784173	6042	14575
1	50792151	6043	15370
1	50800040	6044	15105
1	50807965	6045	14893
1	50815911	6046	15211
1	50823916	6047	15317
1	50831782	6048	15105
1	50839688	6049	15052
1	50847582	6050	15052
1	50855591	6051	15264
1	50863444	6052	14999
1	50871440	6053	15105
1	50879258	6054	14787
1	50887028	6055	14893
1	50894955	6056	15105
1	50902824	6057	14999
1	50910733	6058	14893
1	50918583	6059	14946
1	50926520	6060	15105
1	50934414	6061	15105
1	50942385	6062	15105
1	50950487	6063	15476
1	50958555	6064	15264
1	50966591	6065	15317
1	50974502	6066	14946
1	50982213	6067	14840
1	50990208	6068	15211
1	50998216	6069	15158
1	51006223	6070	15211
1	51014205	6071	15211
1	51022148	6072	15370
1	51030080	6073	15105
1	51038163	6074	15317
1	51046038	6075	14946
1	51053978	6076	15211
1	51061844	6077	14999
1	51069747	6078	15158
1	51077685	6079	15052
1	51085712	6080	15370
1	51093616	6081	14840
1	51101428	6082	14999
1	51109359	6083	15052
1	51117216	6084	14999
1	51125170	6085	15211
1	51132858	6086	14628
1	51140802	6087	15052
1	51148718	6088	15158
1	51156330	6089	14363
1	51164236	6090	15105
1	51172239	6091	15370
1	51180179	6092	15052
1	51188267	6093	15582
1	51196047	6094	14734
1	51204075	6095	15370
1	51212038	6096	14999
1	51220062	6097	15317
1	51228096	6098	15423
1	51236058	6099	15211
1	51244167	6100	15317
1	51252158	6101	15105
1	51260218	6102	15370
1	51268201	6103	15264
1	51276237	6104	15423
1	51284262	6105	15158
1	51292229	6106	15105
1	51300166	6107	15052
1	51308204	6108	15476
1	51316230	6109	15105
1	51324290	6110	15529
1	51332308	6111	15423
1	51340400	6112	15211
1	51348474	6113	15317
1	51356533	6114	15529
1	51364584	6115	15317
1	51372716	6116	15370
1	51380714	6117	15370
1	51388768	6118	15317
1	51396766	6119	15264
1	51404867	6120	15423
1	51413037	6121	15688
1	51421061	6122	15476
1	51429051	6123	15105
1	51437135	6124	15476
1	51445112	6125	15158
1	51452971	6126	14946
1	51461076	6127	15635
1	51468976	6128	14999
1	51476934	6129	15264
1	51484905	6130	15264
1	51492858	6131	14999
1	51500798	6132	15423
1	51508851	6133	15211
1	51516896	6134	15423
1	51524910	6135	15317
1	51532838	6136	15105
1	51540858	6137	15264
1	51548829	6138	15211
1	51556928	6139	15423
1	51564850	6140	15211
1	51572971	6141	15529
1	51580915	6142	15105
1	51588975	6143	15423
1	51596971	6144	15317
1	51604863	6145	14999
1	51613013	6146	15635
1	51620951	6147	15105
1	51629025	6148	15476
1	51637048	6149	15264
1	51645106	6150	15317
1	51653255	6151	15582
1	51661292	6152	15370
1	51669327	6153	15476
1	51677329	6154	15105
1	51685462	6155	15582
1	51693509	6156	15529
1	51701704	6157	15476
1	51709848	6158	15582
1	51717910	6159	15370
1	51725930	6160	15317
1	51734130	6161	15529
1	51742225	6162	15582
1	51750362	6163	15423
1	51758485	6164	15635
1	51766657	6165	15635
1	51774823	6166	15582
1	51782992	6167	15476
1	51790995	6168	15317
1	51799241	6169	15741
1	51807395	6170	15582
1	51815357	6171	15105
1	51823628	6172	15794
1	51831592	6173	15158
1	51839727	6174	15529
1	51847791	6175	15423
1	51855881	6176	15317
1	51863814	6177	15158
1	51871950	6178	15582
1	51880088	6179	15370
1	51888242	6180	15741
1	51896270	6181	15423
1	51904416	6182	15529
1	51912430	6183	15264
1	51920542	6184	15317
1	51928494	6185	15370
1	51936402	6186	15105
1	51944380	6187	15264
1	51952328	6188	15211
1	51960436	6189	15317
1	51968401	6190	15317
1	51976425	6191	15370
1	51984408	6192	15370
1	51992486	6193	15423
1	52000577	6194	15317
1	52008548	6195	15317
1	52016713	6196	15688
1	52024758	6197	15264
1	52032861	6198	15582
1	52040949	6199	15370
1	52049021	6200	15476
1	52057095	6201	15423
1	52064988	6202	15052
1	52073149	6203	15741
1	52081142	6204	15105
1	52089168	6205	15370
1	52097310	6206	15635
1	52105275	6207	15211
1	52113292	6208	15264
1	52121366	6209	15582
1	52129408	6210	15211
1	52137561	6211	15582
1	52145656	6212	15529
1	52153803	6213	15582
1	52161886	6214	15370
1	52170078	6215	15741
1	52178206	6216	15476
1	52186185	6217	15264
1	52194428	6218	15794
1	52202409	6219	15105
1	52210478	6220	15582
1	52218747	6221	15688
1	52226803	6222	15211
1	52234974	6223	15741
1	52243052	6224	15317
1	52250996	6225	15264
1	52258995	6226	15211
1	52266973	6227	15211
1	52275055	6228	15370
1	52283158	6229	15423
1	52291249	6230	15635
1	52299376	6231	15370
1	52307474	6232	15582
1	52315573	6233	15370
1	52323520	6234	15105
1	52331581	6235	15370
1	52339608	6236	15264
1	52347697	6237	15529
1	52355663	6238	15052
1	52363665	6239	15264
1	52371589	6240	15105
1	52379648	6241	15423
1	52387653	6242	15211
1	52395595	6243	15052
1	52403557	6244	15264
1	52411498	6245	14999
1	52419538	6246	15423
1	52427464	6247	15052
1	52435175	6248	14628
1	52443127	6249	15211
1	52451190	6250	15529
1	52459203	6251	15317
1	52467237	6252	15264
1	52475124	6253	15052
1	52483160	6254	15317
1	52491147	6255	15370
1	52499184	6256	15317
1	52507251	6257	15317
1	52515365	6258	15529
1	52523407	6259	15476
1	52531538	6260	15423
1	52539423	6261	15052
1	52547538	6262	15635
1	52555579	6263	15211
1	52563645	6264	15529
1	52571827	6265	15529
1	52579830	6266	15264
1	52588079	6267	15847
1	52596090	6268	15317
1	52604216	6269	15423
1	52612281	6270	15370
1	52620458	6271	15635
1	52628598	6272	15635
1	52636781	6273	15529
1	52644987	6274	15741
1	52653252	6275	15794
1	52661504	6276	15582
1	52669702	6277	15794
1	52677959	6278	15741
1	52686150	6279	15582
1	52694439	6280	15741
1	52702649	6281	15635
1	52710820	6282	15476
1	52719057	6283	15741
1	52727204	6284	15635
1	52735315	6285	15317
1	52743595	6286	15847
1	52751838	6287	15582
1	52760122	6288	15953
1	52768478	6289	15900
1	52776634	6290	15582
1	52784906	6291	15635
1	52793035	6292	15635
1	52801152	6293	15476
1	52809387	6294	15635
1	52817572	6295	15847
1	52825752	6296	15317
1	52833959	6297	15688
1	52842147	6298	15529
1	52850369	6299	15635
1	52858420	6300	15370
1	52866620	6301	15529
1	52874795	6302	15582
1	52882804	6303	15211
1	52890929	6304	15529
1	52899060	6305	15476
1	52907015	6306	15158
1	52915098	6307	15476
1	52923083	6308	15211
1	52931209	6309	15370
1	52939128	6310	14999
1	52947101	6311	15158
1	52955181	6312	15476
1	52963328	6313	15423
1	52971326	6314	15370
1	52979204	6315	14946
1	52987229	6316	15317
1	52995401	6317	15635
1	53003634	6318	15635
1	53011639	6319	15370
1	53019658	6320	15158
1	53027690	6321	15476
1	53035881	6322	15476
1	53043916	6323	15264
1	53052033	6324	15529
1	53060195	6325	15370
1	53068258	6326	15476
1	53076319	6327	15423
1	53084456	6328	15635
1	53092669	6329	15370
1	53100849	6330	15741
1	53108976	6331	15476
1	53117230	6332	15688
1	53125450	6333	15529
1	53133629	6334	15900
1	53141879	6335	15529
1	53150045	6336	15370
1	53158288	6337	15847
1	53166492	6338	15688
1	53174697	6339	15688
1	53182838	6340	15476
1	53190902	6341	15264
1	53198937	6342	15529
1	53206948	6343	15211
1	53214955	6344	15211
1	53222933	6345	15264
1	53231031	6346	15370
1	53239087	6347	15370
1	53247150	6348	15476
1	53255162	6349	15370
1	53263015	6350	14893
1	53270929	6351	15052
1	53279152	6352	15847
1	53287226	6353	15211
1	53295238	6354	15317
1	53303391	6355	15582
1	53311513	6356	15476
1	53319556	6357	15317
1	53327834	6358	15741
1	53335815	6359	15317
1	53343966	6360	15476
1	53352022	6361	15370
1	53360020	6362	15105
1	53368225	6363	15900
1	53376415	6364	15529
1	53384524	6365	15476
1	53392673	6366	15370
1	53400669	6367	15264
1	53408789	6368	15529
1	53416944	6369	15635
1	53425093	6370	15370
1	53433250	6371	15582
1	53441281	6372	15317
1	53449387	6373	15423
1	53457539	6374	15529
1	53465815	6375	15794
1	53473862	6376	15211
1	53482031	6377	15582
1	53490167	6378	15423
1	53498367	6379	15741
1	53506250	6380	14893
1	53514516	6381	15741
1	53522456	6382	15158
1	53530635	6383	15688
1	53538779	6384	15423
1	53546981	6385	15635
1	53555166	6386	15741
1	53563571	6387	16006
1	53571707	6388	15423
1	53579946	6389	15635
1	53588043	6390	15582
1	53596350	6391	15688
1	53604493	6392	15582
1	53612721	6393	15688
1	53621049	6394	15847
1	53629210	6395	15476
1	53637458	6396	15688
1	53645555	6397	15423
1	53653763	6398	15635
1	53661837	6399	15264
1	53670111	6400	15953
1	53678234	6401	15370
1	53686296	6402	15529
1	53694412	6403	15370
1	53702483	6404	15317
1	53710647	6405	15529
1	53718773	6406	15529
1	53726924	6407	15476
1	53735193	6408	15953
1	53743313	6409	15317
1	53751438	6410	15423
1	53759401	6411	15264
1	53767661	6412	15635
1	53775810	6413	15423
1	53783904	6414	15423
1	53791959	6415	15423
1	53800219	6416	15476
1	53808512	6417	16006
1	53816650	6418	15476
1	53824947	6419	15741
1	53832883	6420	15052
1	53841113	6421	15582
1	53849397	6422	15741
1	53857606	6423	15847
1	53865656	6424	15211
1	53874046	6425	16006
1	53882300	6426	15688
1	53890429	6427	15423
1	53898735	6428	15953
1	53906915	6429	15476
1	53915029	6430	15317
1	53923127	6431	15529
1	53931361	6432	15582
1	53939592	6433	15847
1	53947655	6434	15370
1	53955794	6435	15370
1	53964037	6436	15688
1	53972197	6437	15529
1	53980281	6438	15370
1	53988597	6439	15794
1	53996677	6440	15423
1	54004798	6441	15423
1	54012956	6442	15529
1	54021346	6443	16059
1	54029603	6444	15635
1	54037763	6445	15476
1	54046000	6446	15741
1	54054149	6447	15582
1	54062229	6448	15370
1	54070623	6449	16112
1	54078840	6450	15688
1	54087029	6451	15635
1	54095249	6452	15688
1	54103518	6453	15847
1	54111775	6454	15794
1	54119983	6455	15582
1	54128252	6456	15847
1	54136523	6457	15688
1	54144782	6458	15847
1	54153069	6459	15688
1	54161452	6460	15900
1	54169713	6461	15794
1	54178031	6462	15688
1	54186338	6463	15900
1	54194771	6464	16059
1	54203143	6465	16112
1	54211450	6466	15741
1	54219634	6467	15529
1	54227971	6468	16006
1	54236297	6469	15688
1	54244615	6470	16006
1	54252946	6471	15900
1	54261269	6472	15900
1	54269684	6473	16059
1	54277903	6474	15741
1	54286057	6475	15635
1	54294332	6476	15794
1	54302718	6477	15847
1	54310737	6478	15423
1	54318988	6479	15794
1	54327289	6480	15794
1	54335615	6481	15953
1	54343817	6482	15476
1	54352034	6483	15847
1	54360323	6484	15953
1	54368529	6485	15529
1	54376753	6486	15582
1	54385050	6487	16006
1	54393274	6488	15582
1	54401466	6489	15635
1	54409677	6490	15794
1	54417894	6491	15635
1	54426046	6492	15582
1	54434189	6493	15423
1	54442423	6494	15900
1	54450732	6495	15741
1	54458912	6496	15688
1	54467105	6497	15582
1	54475377	6498	15847
1	54483694	6499	15794
1	54492019	6500	16006
1	54500315	6501	15741
1	54508580	6502	15794
1	54517021	6503	16059
1	54525326	6504	15953
1	54533537	6505	15741
1	54541740	6506	15741
1	54550151	6507	15953
1	54558334	6508	15741
1	54566663	6509	15635
1	54574879	6510	15741
1	54583139	6511	15688
1	54591474	6512	15953
1	54599845	6513	15953
1	54608244	6514	16112
1	54616675	6515	15900
1	54624983	6516	15953
1	54633168	6517	15688
1	54641357	6518	15529
1	54649434	6519	15370
1	54657851	6520	16059
1	54666005	6521	15476
1	54674367	6522	16006
1	54682765	6523	16112
1	54690931	6524	15529
1	54699254	6525	15953
1	54707379	6526	15476
1	54715684	6527	15847
1	54723914	6528	15794
1	54732177	6529	15741
1	54740449	6530	15794
1	54748808	6531	16006
1	54757136	6532	15953
1	54765343	6533	15529
1	54773693	6534	16006
1	54782049	6535	15900
1	54790366	6536	16006
1	54798647	6537	15688
1	54807035	6538	16059
1	54815370	6539	15794
1	54823826	6540	16271
1	54832170	6541	15741
1	54840578	6542	16165
1	54848931	6543	16112
1	54857360	6544	15900
1	54865827	6545	16271
1	54874022	6546	15476
1	54882461	6547	16059
1	54890789	6548	15900
1	54899199	6549	16059
1	54907656	6550	16271
1	54916051	6551	15741
1	54924464	6552	16059
1	54932718	6553	15741
1	54940960	6554	15635
1	54949188	6555	15953
1	54957511	6556	15794
1	54965709	6557	15582
1	54974100	6558	16059
1	54982373	6559	15900
1	54990646	6560	15741
1	54998911	6561	15688
1	55007308	6562	16006
1	55015665	6563	16059
1	55024001	6564	15847
1	55032293	6565	15794
1	55040664	6566	15953
1	55048950	6567	15900
1	55057281	6568	15900
1	55065679	6569	15900
1	55074105	6570	16059
1	55082563	6571	16165
1	55090873	6572	15794
1	55099162	6573	15847
1	55107511	6574	15794
1	55115929	6575	16059
1	55124235	6576	16059
1	55132406	6577	15423
1	55140645	6578	15847
1	55149047	6579	16006
1	55157305	6580	15741
1	55165602	6581	15900
1	55173907	6582	15953
1	55182368	6583	16059
1	55190903	6584	16324
1	55199394	6585	16324
1	55207792	6586	16006
1	55216206	6587	16112
1	55224569	6588	15794
1	55232921	6589	16006
1	55241284	6590	16006
1	55249634	6591	15741
1	55258017	6592	16006
1	55266402	6593	15953
1	55274768	6594	15953
1	55283122	6595	15794
1	55291435	6596	15953
1	55299710	6597	15741
1	55307965	6598	15741
1	55316320	6599	16006
1	55324698	6600	15847
1	55332986	6601	15900
1	55341311	6602	16006
1	55349589	6603	15847
1	55357917	6604	15953
1	55366159	6605	15476
1	55374324	6606	15794
1	55382582	6607	15582
1	55390910	6608	15847
1	55398999	6609	15476
1	55407204	6610	15582
1	55415414	6611	15847
1	55423525	6612	15423
1	55431750	6613	15688
1	55439891	6614	15476
1	55448085	6615	15688
1	55456399	6616	15794
1	55464579	6617	15741
1	55472847	6618	15741
1	55480959	6619	15423
1	55489132	6620	15529
1	55497456	6621	16112
1	55505577	6622	15158
1	55513743	6623	15900
1	55522046	6624	15688
1	55530250	6625	15794
1	55538506	6626	15741
1	55546738	6627	15635
1	55554937	6628	15741
1	55563123	6629	15582
1	55571439	6630	15847
1	55579675	6631	15688
1	55587890	6632	15688
1	55596243	6633	16006
1	55604521	6634	15582
1	55612870	6635	16112
1	55621133	6636	15900
1	55629491	6637	15688
1	55637672	6638	15688
1	55645925	6639	15794
1	55654176	6640	15688
1	55662575	6641	16006
1	55670919	6642	15900
1	55679318	6643	16059
1	55687575	6644	15741
1	55695926	6645	15741
1	55704126	6646	15635
1	55712356	6647	15635
1	55720770	6648	16059
1	55728787	6649	14893
1	55737067	6650	15900
1	55745398	6651	15794
1	55753696	6652	16112
1	55762030	6653	15741
1	55770201	6654	15582
1	55778431	6655	15741
1	55786690	6656	15794
1	55794947	6657	15900
1	55803106	6658	15370
1	55811296	6659	15847
1	55819591	6660	15794
1	55827653	6661	15370
1	55835797	6662	15582
1	55843930	6663	15476
1	55852238	6664	15847
1	55860479	6665	15794
1	55868761	6666	15741
1	55877034	6667	15741
1	55885140	6668	15370
1	55893221	6669	15476
1	55901412	6670	15635
1	55909644	6671	15688
1	55917839	6672	15794
1	55926098	6673	15635
1	55934357	6674	15741
1	55942509	6675	15582
1	55950673	6676	15317
1	55959027	6677	16006
1	55967307	6678	15900
1	55975507	6679	15476
1	55983559	6680	15423
1	55991793	6681	15741
1	56000054	6682	15741
1	56008314	6683	15741
1	56016552	6684	15688
1	56024848	6685	15900
1	56033030	6686	15635
1	56041242	6687	15847
1	56049442	6688	15476
1	56057663	6689	15688
1	56065955	6690	16006
1	56074246	6691	15688
1	56082334	6692	15529
1	56090688	6693	16006
1	56098881	6694	15529
1	56107117	6695	15688
1	56115462	6696	16165
1	56123698	6697	15476
1	56131850	6698	15635
1	56140189	6699	16006
1	56148361	6700	15529
1	56156687	6701	15900
1	56164954	6702	15688
1	56173288	6703	16112
1	56181359	6704	15211
1	56189587	6705	15741
1	56197806	6706	15794
1	56205976	6707	15529
1	56214094	6708	15423
1	56222298	6709	15582
1	56230472	6710	15794
1	56238612	6711	15476
1	56246870	6712	15741
1	56255143	6713	15794
1	56263428	6714	15794
1	56271630	6715	15794
1	56279839	6716	15582
1	56287995	6717	15582
1	56296197	6718	15582
1	56304391	6719	15741
1	56312714	6720	16006
1	56320946	6721	15582
1	56329143	6722	15847
1	56337278	6723	15423
1	56345701	6724	16165
1	56353831	6725	15370
1	56362041	6726	15741
1	56370296	6727	15741
1	56378515	6728	15741
1	56386772	6729	15794
1	56394932	6730	15635
1	56403232	6731	15582
1	56411276	6732	15476
1	56419459	6733	15423
1	56427791	6734	15900
1	56435979	6735	15635
1	56444212	6736	15688
1	56452440	6737	15794
1	56460734	6738	15794
1	56468969	6739	15688
1	56477195	6740	15688
1	56485482	6741	15688
1	56493853	6742	16059
1	56502213	6743	16059
1	56510491	6744	15741
1	56518871	6745	15953
1	56527136	6746	15847
1	56535508	6747	16006
1	56543799	6748	15741
1	56552076	6749	15847
1	56560353	6750	15847
1	56568633	6751	15741
1	56577028	6752	16165
1	56585412	6753	15900
1	56593704	6754	15741
1	56602023	6755	15847
1	56610392	6756	16059
1	56618751	6757	15900
1	56627044	6758	15900
1	56635310	6759	15794
1	56643766	6760	16059
1	56652157	6761	16059
1	56660338	6762	15423
1	56668684	6763	15900
1	56676896	6764	15741
1	56685245	6765	15900
1	56693641	6766	16006
1	56701906	6767	15900
1	56710359	6768	16006
1	56718609	6769	15900
1	56726920	6770	15741
1	56735042	6771	15476
1	56743141	6772	15688
1	56751254	6773	15423
1	56759487	6774	15741
1	56767739	6775	15741
1	56775981	6776	15741
1	56784130	6777	15688
1	56792281	6778	15370
1	56800576	6779	16006
1	56808768	6780	15529
1	56816844	6781	15423
1	56825072	6782	15688
1	56833346	6783	15900
1	56841734	6784	15953
1	56849973	6785	15794
1	56858304	6786	16006
1	56866687	6787	16112
1	56875064	6788	15953
1	56883336	6789	15741
1	56891773	6790	16112
1	56900221	6791	16218
1	56908616	6792	16006
1	56916953	6793	15847
1	56925378	6794	16059
1	56933806	6795	16218
1	56942369	6796	16377
1	56950753	6797	16006
1	56959164	6798	16059
1	56967756	6799	16324
1	56976050	6800	15953
1	56984466	6801	16112
1	56992826	6802	15953
1	57001231	6803	16006
1	57009574	6804	15953
1	57018077	6805	16271
1	57026487	6806	15953
1	57034841	6807	16112
1	57043400	6808	16377
1	57051867	6809	16165
1	57060242	6810	15953
1	57068679	6811	16112
1	57077074	6812	15953
1	57085409	6813	16006
1	57093722	6814	15847
1	57102156	6815	16218
1	57110580	6816	16006
1	57119005	6817	16324
1	57127396	6818	15847
1	57135849	6819	16218
1	57144133	6820	15635
1	57152475	6821	16059
1	57160819	6822	15900
1	57169181	6823	16059
1	57177534	6824	15953
1	57185788	6825	15741
1	57194104	6826	15953
1	57202702	6827	16430
1	57211099	6828	16006
1	57219281	6829	15582
1	57227537	6830	15847
1	57235791	6831	15847
1	57243882	6832	15264
1	57252025	6833	15476
1	57260103	6834	15582
1	57268174	6835	15423
1	57276345	6836	15582
1	57284281	6837	15211
1	57292400	6838	15370
1	57300659	6839	15741
1	57308888	6840	15741
1	57316984	6841	15476
1	57325151	6842	15688
1	57333338	6843	15635
1	57341560	6844	15635
1	57349679	6845	15529
1	57357822	6846	15582
1	57366023	6847	15688
1	57374093	6848	15317
1	57382416	6849	16006
1	57390497	6850	15264
1	57398772	6851	15794
1	57406838	6852	15476
1	57414929	6853	15423
1	57423220	6854	15953
1	57431395	6855	15635
1	57439749	6856	15953
1	57447972	6857	15847
1	57456192	6858	15794
1	57464351	6859	15423
1	57472557	6860	15688
1	57480701	6861	15529
1	57488893	6862	15582
1	57497014	6863	15688
1	57505259	6864	15635
1	57513517	6865	15794
1	57521771	6866	16059
1	57530023	6867	15529
1	57538072	6868	15370
1	57546319	6869	15688
1	57554523	6870	15635
1	57562658	6871	15688
1	57570779	6872	15529
1	57578997	6873	15635
1	57587179	6874	15688
1	57595578	6875	16112
1	57603848	6876	15847
1	57612119	6877	15847
1	57620509	6878	16006
1	57628822	6879	15794
1	57637275	6880	16059
1	57645592	6881	15953
1	57653803	6882	15635
1	57662175	6883	15953
1	57670527	6884	15953
1	57678760	6885	15741
1	57686989	6886	15635
1	57695235	6887	15635
1	57703430	6888	15794
1	57711676	6889	15688
1	57720085	6890	16006
1	57728232	6891	15688
1	57736415	6892	15582
1	57744710	6893	15741
1	57753038	6894	15953
1	57761292	6895	15847
1	57769667	6896	16006
1	57778052	6897	15900
1	57786364	6898	15900
1	57794749	6899	16059
1	57803134	6900	15794
1	57811430	6901	16059
1	57819857	6902	15953
1	57828383	6903	16430
1	57836749	6904	15953
1	57845296	6905	16059
1	57853568	6906	15688
1	57861903	6907	15953
1	57870284	6908	16165
1	57878735	6909	16165
1	57887206	6910	16165
1	57895658	6911	16165
1	57904158	6912	16112
1	57912836	6913	16483
1	57921219	6914	16165
1	57929732	6915	16059
1	57938218	6916	16271
1	57946637	6917	16006
1	57955174	6918	16271
1	57963599	6919	16165
1	57972075	6920	16218
1	57980499	6921	16112
1	57988948	6922	16059
1	57997502	6923	16324
1	58006118	6924	16483
1	58014649	6925	16271
1	58023043	6926	16006
1	58031533	6927	16271
1	58039784	6928	15741
1	58048442	6929	16430
1	58056755	6930	15794
1	58065249	6931	16218
1	58073755	6932	16377
1	58082327	6933	16377
1	58090866	6934	16271
1	58099344	6935	16218
1	58107765	6936	15953
1	58116261	6937	16324
1	58124889	6938	16589
1	58133447	6939	16112
1	58141750	6940	15953
1	58150329	6941	16483
1	58158789	6942	16059
1	58167441	6943	16589
1	58176033	6944	16218
1	58184510	6945	16165
1	58193007	6946	16271
1	58201385	6947	16006
1	58209930	6948	16324
1	58218421	6949	16112
1	58226906	6950	16271
1	58235176	6951	15794
1	58243690	6952	16218
1	58252133	6953	16218
1	58260514	6954	16059
1	58268963	6955	16006
1	58277417	6956	16165
1	58285878	6957	16218
1	58294313	6958	16112
1	58302875	6959	16218
1	58311491	6960	16589
1	58319900	6961	16112
1	58328350	6962	16112
1	58336804	6963	16218
1	58345346	6964	16377
1	58353852	6965	16165
1	58362204	6966	16112
1	58370710	6967	16112
1	58379227	6968	16324
1	58387776	6969	16165
1	58396210	6970	16271
1	58404609	6971	16006
1	58412983	6972	15900
1	58421533	6973	16377
1	58430055	6974	16165
1	58438522	6975	16271
1	58446892	6976	15953
1	58455474	6977	16271
1	58464016	6978	16377
1	58472489	6979	15900
1	58480888	6980	16165
1	58489380	6981	16218
1	58497673	6982	15900
1	58506024	6983	15953
1	58514482	6984	16165
1	58522966	6985	16165
1	58531503	6986	16271
1	58539869	6987	16059
1	58548353	6988	16112
1	58556809	6989	16165
1	58565312	6990	16006
1	58573742	6991	16165
1	58582251	6992	16165
1	58590717	6993	16006
1	58599108	6994	16271
1	58607515	6995	15688
1	58615895	6996	16059
1	58624427	6997	16324
1	58632758	6998	15847
1	58641160	6999	16006
1	58649540	7000	16006
1	58657822	7001	15741
1	58666234	7002	16165
1	58674645	7003	16059
1	58683027	7004	15794
1	58691397	7005	16059
1	58699792	7006	16006
1	58708160	7007	16165
1	58716645	7008	16059
1	58725145	7009	16271
1	58733604	7010	16112
1	58741940	7011	16006
1	58750398	7012	16218
1	58758680	7013	15688
1	58767058	7014	16059
1	58775346	7015	15953
1	58783781	7016	16165
1	58792285	7017	16165
1	58800582	7018	15900
1	58809244	7019	16377
1	58817597	7020	16112
1	58826027	7021	16165
1	58834498	7022	16218
1	58843031	7023	16324
1	58851518	7024	16165
1	58860031	7025	16218
1	58868518	7026	16112
1	58876925	7027	16112
1	58885537	7028	16589
1	58894048	7029	16165
1	58902581	7030	16377
1	58911109	7031	16165
1	58919600	7032	16271
1	58928232	7033	16324
1	58936869	7034	16695
1	58945360	7035	16165
1	58953945	7036	16377
1	58962578	7037	16642
1	58971085	7038	16112
1	58979534	7039	16218
1	58988167	7040	16483
1	58996821	7041	16271
1	59005214	7042	16059
1	59013728	7043	16271
1	59022289	7044	16324
1	59030883	7045	16271
1	59039419	7046	16536
1	59048027	7047	16324
1	59056547	7048	16324
1	59065084	7049	16324
1	59073594	7050	16165
1	59082062	7051	16218
1	59090697	7052	16536
1	59099196	7053	16324
1	59107628	7054	16112
1	59116235	7055	16483
1	59124773	7056	16165
1	59133337	7057	16430
1	59141784	7058	16165
1	59150405	7059	16536
1	59158952	7060	16165
1	59167494	7061	16377
1	59175926	7062	16112
1	59184295	7063	15847
1	59192624	7064	15900
1	59200959	7065	16112
1	59209172	7066	15476
1	59217552	7067	16059
1	59225933	7068	16218
1	59234314	7069	16006
1	59242712	7070	16006
1	59251063	7071	15794
1	59259408	7072	16165
1	59267903	7073	16271
1	59276386	7074	16059
1	59284752	7075	15953
1	59293207	7076	16324
1	59301586	7077	16006
1	59309946	7078	15953
1	59318366	7079	16218
1	59326799	7080	15847
1	59335130	7081	16165
1	59343484	7082	15900
1	59351915	7083	16112
1	59360438	7084	16271
1	59368859	7085	16218
1	59377386	7086	16377
1	59385858	7087	16006
1	59394388	7088	16271
1	59402844	7089	16271
1	59411220	7090	16006
1	59419651	7091	16059
1	59428038	7092	16112
1	59436364	7093	15847
1	59444881	7094	16271
1	59453474	7095	16430
1	59461957	7096	16165
1	59470557	7097	16324
1	59478950	7098	16218
1	59487579	7099	16483
1	59495912	7100	15847
1	59504467	7101	16430
1	59512905	7102	15953
1	59521393	7103	16324
1	59529926	7104	16483
1	59538227	7105	15847
1	59546860	7106	16483
1	59555294	7107	16006
1	59563673	7108	16006
1	59572017	7109	16059
1	59580448	7110	16165
1	59588984	7111	16271
1	59597363	7112	16006
1	59605636	7113	15794
1	59613782	7114	15635
1	59621900	7115	15529
1	59630014	7116	15529
1	59638136	7117	15476
1	59646415	7118	15794
1	59654522	7119	15423
1	59662610	7120	15582
1	59670664	7121	15476
1	59678922	7122	15529
1	59686993	7123	15635
1	59694969	7124	15317
1	59703156	7125	15423
1	59711263	7126	15582
1	59719382	7127	15529
1	59727528	7128	15635
1	59735792	7129	15582
1	59743925	7130	15688
1	59752196	7131	15794
1	59760412	7132	15635
1	59768626	7133	15741
1	59776901	7134	16006
1	59785153	7135	15688
1	59793297	7136	15635
1	59801543	7137	15688
1	59809660	7138	15476
1	59817987	7139	16006
1	59826179	7140	15741
1	59834319	7141	15529
1	59842416	7142	15423
1	59850738	7143	15847
1	59859156	7144	16271
1	59867314	7145	15476
1	59875642	7146	15847
1	59883834	7147	15688
1	59892113	7148	15900
1	59900262	7149	15582
1	59908391	7150	15370
1	59916689	7151	16059
1	59924841	7152	15529
1	59933083	7153	15847
1	59941320	7154	15741
1	59949540	7155	15741
1	59957737	7156	15582
1	59965977	7157	15794
1	59974183	7158	15794
1	59982580	7159	16059
1	59990721	7160	15582
1	59999045	7161	15953
1	60007227	7162	15423
1	60015509	7163	15953
1	60023826	7164	16006
1	60032024	7165	15529
1	60040198	7166	15741
1	60048441	7167	15688
1	60056653	7168	15741
1	60064890	7169	15847
1	60073366	7170	16112
1	60081793	7171	16112
1	60090153	7172	16059
1	60098620	7173	16059
1	60106955	7174	16112
1	60115425	7175	16059
1	60123756	7176	16006
1	60132107	7177	16006
1	60140645	7178	16324
1	60149036	7179	15953
1	60157448	7180	16165
1	60165964	7181	16218
1	60174466	7182	16377
1	60183067	7183	16377
1	60191701	7184	16377
1	60200350	7185	16748
1	60208906	7186	16271
1	60217434	7187	16377
1	60225946	7188	16218
1	60234568	7189	16536
1	60243146	7190	16377
1	60251736	7191	16483
1	60260194	7192	16218