version 2
run AimdCC-0-20100909-19:31:16-2524
attr configname AimdCC
attr datetime 20100909-19:31:16
attr experiment AimdCC
attr inifile D:/Developement/Oversim2/multic/simulations/omnetpp.ini
attr iterationvars $rateIncoming=400000
attr iterationvars2 "$rateIncoming=400000, $repetition=0"
attr measurement $rateIncoming=400000
attr network oversim.underlay.simpleunderlay.SimpleUnderlayNetwork
attr processid 2524
attr rateIncoming 400000
attr repetition 0
attr replication #0
attr resultdir results
attr runnumber 0
attr seedset 0

vector 1  SimpleUnderlayNetwork.globalObserver.globalStatistics  incoming_bytes  ETV
vector 2  SimpleUnderlayNetwork.globalObserver.globalStatistics  drops  ETV
vector 3  SimpleUnderlayNetwork.globalObserver.globalStatistics  delayed_acks  ETV
vector 4  SimpleUnderlayNetwork.globalObserver.globalStatistics  timetotimeouts  ETV
vector 5  SimpleUnderlayNetwork.globalObserver.globalStatistics  9rateOf1To0  ETV
vector 6  SimpleUnderlayNetwork.globalObserver.globalStatistics  max9RateOf1To0  ETV
vector 7  SimpleUnderlayNetwork.globalObserver.globalStatistics  9rateOf1To1  ETV
vector 8  SimpleUnderlayNetwork.globalObserver.globalStatistics  max9RateOf1To1  ETV
vector 9  SimpleUnderlayNetwork.globalObserver.globalStatistics  9rateOf1To2  ETV
vector 10  SimpleUnderlayNetwork.globalObserver.globalStatistics  max9RateOf1To2  ETV
vector 11  SimpleUnderlayNetwork.globalObserver.globalStatistics  9rateOf1To3  ETV
vector 12  SimpleUnderlayNetwork.globalObserver.globalStatistics  max9RateOf1To3  ETV
vector 13  SimpleUnderlayNetwork.globalObserver.globalStatistics  9rateOf1To4  ETV
vector 14  SimpleUnderlayNetwork.globalObserver.globalStatistics  max9RateOf1To4  ETV
vector 15  SimpleUnderlayNetwork.globalObserver.globalStatistics  9rateOf1To5  ETV
vector 16  SimpleUnderlayNetwork.globalObserver.globalStatistics  max9RateOf1To5  ETV
vector 17  SimpleUnderlayNetwork.globalObserver.globalStatistics  9rateOf1To6  ETV
vector 18  SimpleUnderlayNetwork.globalObserver.globalStatistics  max9RateOf1To6  ETV
vector 19  SimpleUnderlayNetwork.globalObserver.globalStatistics  9rateOf1To7  ETV
vector 20  SimpleUnderlayNetwork.globalObserver.globalStatistics  max9RateOf1To7  ETV
vector 21  SimpleUnderlayNetwork.globalObserver.globalStatistics  9rateOf1To8  ETV
vector 22  SimpleUnderlayNetwork.globalObserver.globalStatistics  max9RateOf1To8  ETV
vector 23  SimpleUnderlayNetwork.globalObserver.globalStatistics  9rateOf1To9  ETV
vector 24  SimpleUnderlayNetwork.globalObserver.globalStatistics  max9RateOf1To9  ETV
vector 25  SimpleUnderlayNetwork.globalObserver.globalStatistics  1rate  ETV
vector 26  SimpleUnderlayNetwork.globalObserver.globalStatistics  max2Rate  ETV
vector 27  SimpleUnderlayNetwork.globalObserver.globalStatistics  "GlobalNodeList: Number of nodes"  ETV
vector 28  SimpleUnderlayNetwork.globalObserver.globalStatistics  "GlobalNodeList: Number of bootstrapped malicious nodes"  ETV
1	132340094	6019	46746
1	132364310	6020	47064
1	132388617	6021	47223
1	132412949	6022	47011
1	132437157	6023	46905
1	132461446	6024	47170
1	132485896	6025	47064
1	132510256	6026	47276
1	132534856	6027	47329
1	132559329	6028	47965
1	132583816	6029	47011
1	132608136	6030	47382
1	132632515	6031	46905
1	132657085	6032	47859
1	132681687	6033	48071
1	132706142	6034	46746
1	132730570	6035	47382
1	132755148	6036	47276
1	132779785	6037	47859
1	132804470	6038	47859
1	132829151	6039	47647
1	132854055	6040	48442
1	132878772	6041	47965
1	132903407	6042	47700
1	132928272	6043	48389
1	132953078	6044	48177
1	132977781	6045	48124
1	133002469	6046	47382
1	133027208	6047	48018
1	133051949	6048	47488
1	133076703	6049	48442
1	133101681	6050	48548
1	133126462	6051	47435
1	133151156	6052	48177
1	133175681	6053	47170
1	133200215	6054	47806
1	133225149	6055	48442
1	133249650	6056	47541
1	133274245	6057	47859
1	133298625	6058	46693
1	133323091	6059	47753
1	133347771	6060	47541
1	133372163	6061	47541
1	133396827	6062	47753
1	133421314	6063	47488
1	133445851	6064	47011
1	133470853	6065	48866
1	133495848	6066	48707
1	133520718	6067	47912
1	133545512	6068	48495
1	133569847	6069	46746
1	133593874	6070	46481
1	133618386	6071	47435
1	133642730	6072	47223
1	133666574	6073	45951
1	133690472	6074	46587
1	133714780	6075	46958
1	133739057	6076	46799
1	133763056	6077	46905
1	133787196	6078	46428
1	133811536	6079	47435
1	133835423	6080	46216
1	133859576	6081	46905
1	133883267	6082	45580
1	133907633	6083	47382
1	133931555	6084	45898
1	133955931	6085	47382
1	133979954	6086	46799
1	134004180	6087	47223
1	134028387	6088	46905
1	134052556	6089	46746
1	134076748	6090	46587
1	134101180	6091	47276
1	134125095	6092	46163
1	134149471	6093	47329
1	134173918	6094	47382
1	134198003	6095	46587
1	134222545	6096	48389
1	134246876	6097	46852
1	134271259	6098	47117
1	134295689	6099	47488
1	134320182	6100	47329
1	134344252	6101	46004
1	134368223	6102	46958
1	134392707	6103	47382
1	134416958	6104	47223
1	134441164	6105	46375
1	134465717	6106	47912
1	134490243	6107	47276
1	134514738	6108	47382
1	134538910	6109	46905
1	134563202	6110	47329
1	134587733	6111	47382
1	134612348	6112	47753
1	134636581	6113	47064
1	134661071	6114	47700
1	134685284	6115	46322
1	134709913	6116	47859
1	134734354	6117	47541
1	134758929	6118	47276
1	134783550	6119	48230
1	134807998	6120	47223
1	134832548	6121	47488
1	134857031	6122	47329
1	134881776	6123	47965
1	134906495	6124	47859
1	134931143	6125	47276
1	134955602	6126	48124
1	134979975	6127	46693
1	135004330	6128	47647
1	135028839	6129	47647
1	135053028	6130	46322
1	135077584	6131	48283
1	135101801	6132	46269
1	135126001	6133	47170
1	135150221	6134	47223
1	135174619	6135	46958
1	135198956	6136	47170
1	135223213	6137	47170
1	135247631	6138	47064
1	135271858	6139	46799
1	135296163	6140	47435
1	135320219	6141	46216
1	135344509	6142	47170
1	135368662	6143	46481
1	135393169	6144	47806
1	135417237	6145	46534
1	135441470	6146	47011
1	135465863	6147	47594
1	135490406	6148	47700
1	135514668	6149	46799
1	135539038	6150	47117
1	135563316	6151	47117
1	135587629	6152	46905
1	135611631	6153	46693
1	135636118	6154	47753
1	135660310	6155	46322
1	135684300	6156	46587
1	135708683	6157	47382
1	135733156	6158	47382
1	135757233	6159	46852
1	135781429	6160	46693
1	135805572	6161	46428
1	135829684	6162	46799
1	135854203	6163	47753
1	135878731	6164	47912
1	135902802	6165	46057
1	135926991	6166	47329
1	135951057	6167	46799
1	135975595	6168	47064
1	135999725	6169	46905
1	136023945	6170	47223
1	136048126	6171	46799
1	136072355	6172	46799
1	136096632	6173	46428
1	136120781	6174	47276
1	136144835	6175	46640
1	136168856	6176	46534
1	136192960	6177	47064
1	136216733	6178	45686
1	136241151	6179	47488
1	136265476	6180	46958
1	136289714	6181	46587
1	136314032	6182	47382
1	136338078	6183	46428
1	136362715	6184	48018
1	136387011	6185	46958
1	136411239	6186	46799
1	136435844	6187	47753
1	136459972	6188	47223
1	136484579	6189	47965
1	136509297	6190	47170
1	136533725	6191	47064
1	136558098	6192	47647
1	136582442	6193	47011
1	136607083	6194	48336
1	136631182	6195	46799
1	136655351	6196	46587
1	136679756	6197	47170
1	136703835	6198	46428
1	136728215	6199	47488
1	136752465	6200	46269
1	136776731	6201	47488
1	136800884	6202	46587
1	136825338	6203	47329
1	136849813	6204	48230
1	136874188	6205	47117
1	136898506	6206	46640
1	136922987	6207	47329
1	136947611	6208	47912
1	136972190	6209	47647
1	136996861	6210	47700
1	137021540	6211	47859
1	137045866	6212	47594
1	137070371	6213	47276
1	137095057	6214	47223
1	137119889	6215	48124
1	137144463	6216	48177
1	137168996	6217	46852
1	137193586	6218	48283
1	137218183	6219	47276
1	137243001	6220	48442
1	137267539	6221	47276
1	137291465	6222	46057
1	137315442	6223	46852
1	137339125	6224	45527
1	137363097	6225	46852
1	137387163	6226	46216
1	137411427	6227	46746
1	137435330	6228	47170
1	137459029	6229	45315
1	137483332	6230	47223
1	137507272	6231	46693
1	137531364	6232	46163
1	137555440	6233	46534
1	137579543	6234	46958
1	137603845	6235	47382
1	137627618	6236	45739
1	137651639	6237	46852
1	137675791	6238	46481
1	137699529	6239	45739
1	137723720	6240	47276
1	137747778	6241	46693
1	137771651	6242	45951
1	137795788	6243	47011
1	137819809	6244	46004
1	137843954	6245	47382
1	137868018	6246	46322
1	137892023	6247	46958
1	137916290	6248	46799
1	137940297	6249	46163
1	137964609	6250	47382
1	137988842	6251	47064
1	138013496	6252	47912
1	138037915	6253	47170
1	138061781	6254	46375
1	138085843	6255	46481
1	138110265	6256	47488
1	138134277	6257	46640
1	138158451	6258	46640
1	138182759	6259	46693
1	138207197	6260	47753
1	138231655	6261	47223
1	138256314	6262	47700
1	138281046	6263	48283
1	138305531	6264	47064
1	138330316	6265	48124
1	138354565	6266	46852
1	138379354	6267	47912
1	138403891	6268	48336
1	138428511	6269	47064
1	138453095	6270	48018
1	138477748	6271	47117
1	138502670	6272	48760
1	138526814	6273	46640
1	138550996	6274	46852
1	138575014	6275	46693
1	138599292	6276	46852
1	138623734	6277	47647
1	138647977	6278	47064
1	138672212	6279	47170
1	138696603	6280	46587
1	138721029	6281	47223
1	138745328	6282	47541
1	138769410	6283	46216
1	138793647	6284	47541
1	138817827	6285	46799
1	138842131	6286	46958
1	138866117	6287	46428
1	138890375	6288	46640
1	138914759	6289	47806
1	138938889	6290	46163
1	138963407	6291	47965
1	138987425	6292	46110
1	139011806	6293	47647
1	139036042	6294	46640
1	139060067	6295	46958
1	139084433	6296	47011
1	139108835	6297	46852
1	139133355	6298	47700
1	139158084	6299	48071
1	139182282	6300	47276
1	139206759	6301	46905
1	139231280	6302	48124
1	139255574	6303	46799
1	139280313	6304	47806
1	139304627	6305	46799
1	139329015	6306	47541
1	139353317	6307	47064
1	139377929	6308	47541
1	139402181	6309	47382
1	139426459	6310	46110
1	139450658	6311	47806
1	139475059	6312	46958
1	139499344	6313	47011
1	139523595	6314	47117
1	139547982	6315	47594
1	139572287	6316	47329
1	139596114	6317	46163
1	139620282	6318	47064
1	139644542	6319	46799
1	139668714	6320	46481
1	139692938	6321	46640
1	139717046	6322	47329
1	139741408	6323	47117
1	139765179	6324	45633
1	139789261	6325	46958
1	139813271	6326	46322
1	139837472	6327	47223
1	139861794	6328	47170
1	139885841	6329	46799
1	139909883	6330	46110
1	139933911	6331	46216
1	139958134	6332	47382
1	139982318	6333	46746
1	140006752	6334	47117
1	140031091	6335	47276
1	140055958	6336	48177
1	140080348	6337	47753
1	140104266	6338	45792
1	140128339	6339	46746
1	140152819	6340	47276
1	140177286	6341	47329
1	140201657	6342	47594
1	140225925	6343	47329
1	140250145	6344	46163
1	140274485	6345	47064
1	140299031	6346	48601
1	140323199	6347	46322
1	140346889	6348	46216
1	140371096	6349	46428
1	140395559	6350	47806
1	140420155	6351	47488
1	140444415	6352	47170
1	140468809	6353	46958
1	140492889	6354	46958
1	140516840	6355	46216
1	140541157	6356	46534
1	140565423	6357	47223
1	140589492	6358	46746
1	140613732	6359	46640
1	140637979	6360	47382
1	140662159	6361	47117
1	140685984	6362	45898
1	140710143	6363	46905
1	140734166	6364	46852
1	140758211	6365	46269
1	140782591	6366	46799
1	140806987	6367	47488
1	140831122	6368	46746
1	140855218	6369	47011
1	140879726	6370	47117
1	140903946	6371	46799
1	140928098	6372	47435
1	140952461	6373	47011
1	140976993	6374	47488
1	141001585	6375	47859
1	141025758	6376	46163
1	141050688	6377	48283
1	141075204	6378	47912
1	141099807	6379	47541
1	141124355	6380	47276
1	141148983	6381	48018
1	141173648	6382	48336
1	141198290	6383	47382
1	141222940	6384	48230
1	141247875	6385	47541
1	141273094	6386	49237
1	141297633	6387	47064
1	141322544	6388	48389
1	141347214	6389	48177
1	141372130	6390	48283
1	141397040	6391	47912
1	141421976	6392	48283
1	141446591	6393	47859
1	141471140	6394	47435
1	141496001	6395	48124
1	141520812	6396	48071
1	141545906	6397	49343
1	141570850	6398	47753
1	141595973	6399	48760
1	141621055	6400	48760
1	141645829	6401	47859
1	141670518	6402	48018
1	141695678	6403	48177
1	141720428	6404	47806
1	141745296	6405	48442
1	141770341	6406	48972
1	141795320	6407	48442
1	141820042	6408	47806
1	141844727	6409	47435
1	141869737	6410	49502
1	141894675	6411	47753
1	141919447	6412	47806
1	141944469	6413	49237
1	141969240	6414	47329
1	141993855	6415	47382
1	142018767	6416	48124
1	142043729	6417	48813
1	142068399	6418	47806
1	142093086	6419	47806
1	142117885	6420	48389
1	142142574	6421	47965
1	142167004	6422	46799
1	142191820	6423	48071
1	142216501	6424	48336
1	142240896	6425	47011
1	142265374	6426	47488
1	142290401	6427	48919
1	142315093	6428	47276
1	142339552	6429	47011
1	142364091	6430	48336
1	142388984	6431	48124
1	142413337	6432	46799
1	142437934	6433	48283
1	142462570	6434	46905
1	142487180	6435	48124
1	142511729	6436	47700
1	142536546	6437	48336
1	142561019	6438	46746
1	142585696	6439	48230
1	142610580	6440	48177
1	142635282	6441	47647
1	142659874	6442	47594
1	142684473	6443	47753
1	142709055	6444	47806
1	142733465	6445	47011
1	142758467	6446	48813
1	142782781	6447	46799
1	142807462	6448	47965
1	142831874	6449	47382
1	142856845	6450	48495
1	142881231	6451	47011
1	142906073	6452	48336
1	142930822	6453	47594
1	142955801	6454	48972
1	142980771	6455	47965
1	143005250	6456	47329
1	143030176	6457	48124
1	143055187	6458	48760
1	143079973	6459	47859
1	143105182	6460	48972
1	143129689	6461	47859
1	143154319	6462	47276
1	143179130	6463	47700
1	143203935	6464	48442
1	143228517	6465	47753
1	143253097	6466	47435
1	143277725	6467	47806
1	143302494	6468	48230
1	143327212	6469	47647
1	143351976	6470	48230
1	143376626	6471	47011
1	143401255	6472	48283
1	143426180	6473	48336
1	143450902	6474	47912
1	143475362	6475	47276
1	143499995	6476	47647
1	143524598	6477	47965
1	143549784	6478	48601
1	143574371	6479	47912
1	143598900	6480	47435
1	143623521	6481	47647
1	143648141	6482	47647
1	143673112	6483	48124
1	143697780	6484	47647
1	143722473	6485	48124
1	143747498	6486	48071
1	143772225	6487	48495
1	143796947	6488	47700
1	143821681	6489	48071
1	143846864	6490	48919
1	143871734	6491	47859
1	143896817	6492	48707
1	143921779	6493	48654
1	143946674	6494	47859
1	143971870	6495	48919
1	143996782	6496	48495
1	144021576	6497	48071
1	144046523	6498	48071
1	144071304	6499	48548
1	144095972	6500	47329
1	144121122	6501	48972
1	144145953	6502	48389
1	144170395	6503	46693
1	144195373	6504	48601
1	144220225	6505	48283
1	144245166	6506	48071
1	144270141	6507	48177
1	144295386	6508	49396
1	144320359	6509	48177
1	144345058	6510	47859
1	144370126	6511	48336
1	144395162	6512	49396
1	144420232	6513	48230
1	144445463	6514	49078
1	144470318	6515	47965
1	144494893	6516	47382
1	144519808	6517	48495
1	144544838	6518	48601
1	144569965	6519	48283
1	144595030	6520	48654
1	144620170	6521	48548
1	144644864	6522	48389
1	144670005	6523	48601
1	144694939	6524	48283
1	144719872	6525	47912
1	144744728	6526	48760
1	144769784	6527	48495
1	144794848	6528	48389
1	144819577	6529	47594
1	144844992	6530	50403
1	144869744	6531	47435
1	144894821	6532	48389
1	144919822	6533	48442
1	144944945	6534	48813
1	144969950	6535	47753
1	144994820	6536	49184
1	145019618	6537	47382
1	145044455	6538	48495
1	145069154	6539	47647
1	145094282	6540	48760
1	145119218	6541	48442
1	145143955	6542	47329
1	145168832	6543	48230
1	145194043	6544	49078
1	145218717	6545	47541
1	145243589	6546	48707
1	145268540	6547	47965
1	145293360	6548	48389
1	145317985	6549	47435
1	145342504	6550	47806
1	145366942	6551	46746
1	145391973	6552	49290
1	145416207	6553	46905
1	145440894	6554	47541
1	145465780	6555	48177
1	145490255	6556	47488
1	145514895	6557	48177
1	145539227	6558	46799
1	145563816	6559	47488
1	145588387	6560	47541
1	145612946	6561	47594
1	145637144	6562	46905
1	145661101	6563	46746
1	145685616	6564	47806
1	145710076	6565	46852
1	145734553	6566	47541
1	145758993	6567	47594
1	145783298	6568	46852
1	145807513	6569	47117
1	145832056	6570	47541
1	145856122	6571	46216
1	145880964	6572	48283
1	145905544	6573	47541
1	145929669	6574	46746
1	145954118	6575	47435
1	145978549	6576	47435
1	146002984	6577	46958
1	146027133	6578	47382
1	146051168	6579	46269
1	146075507	6580	46958
1	146099860	6581	47382
1	146124044	6582	47382
1	146148341	6583	46905
1	146172706	6584	47170
1	146197110	6585	46958
1	146221316	6586	47329
1	146245496	6587	46587
1	146269813	6588	47647
1	146294274	6589	47382
1	146318474	6590	46216
1	146342796	6591	47223
1	146366909	6592	46905
1	146390803	6593	47011
1	146415290	6594	46640
1	146439565	6595	47170
1	146463711	6596	46693
1	146487763	6597	46640
1	146512038	6598	46799
1	146536249	6599	47488
1	146560405	6600	46322
1	146584275	6601	46163
1	146608354	6602	46640
1	146632278	6603	46110
1	146656508	6604	47117
1	146680598	6605	47011
1	146705056	6606	46958
1	146729258	6607	47117
1	146753722	6608	47594
1	146778077	6609	47117
1	146802337	6610	47276
1	146826411	6611	46587
1	146850845	6612	47488
1	146875227	6613	46905
1	146899603	6614	47223
1	146924088	6615	47594
1	146948252	6616	46905
1	146972579	6617	47382
1	146996904	6618	46746
1	147021280	6619	46852
1	147045395	6620	46534
1	147070062	6621	48813
1	147094520	6622	46269
1	147118718	6623	47488
1	147143037	6624	47541
1	147167299	6625	46322
1	147192031	6626	48018
1	147216202	6627	46693
1	147240903	6628	48071
1	147265455	6629	47647
1	147290075	6630	47329
1	147314194	6631	47011
1	147338930	6632	47647
1	147363516	6633	48389
1	147388083	6634	47011
1	147412720	6635	48177
1	147437560	6636	48071
1	147461975	6637	47382
1	147486609	6638	47859
1	147510875	6639	46852
1	147535391	6640	47382
1	147559875	6641	47541
1	147584224	6642	46640
1	147608908	6643	48124
1	147633494	6644	47753
1	147657958	6645	47541
1	147682652	6646	48071
1	147707104	6647	47011
1	147731658	6648	47647
1	147756482	6649	47647
1	147780900	6650	47435
1	147805461	6651	48283
1	147830241	6652	47541
1	147854848	6653	48548
1	147879308	6654	47064
1	147903654	6655	46799
1	147928415	6656	47700
1	147952792	6657	47276
1	147977282	6658	47647
1	148001781	6659	47382
1	148026255	6660	47382
1	148050900	6661	48071
1	148075000	6662	46428
1	148099292	6663	47382
1	148123666	6664	46905
1	148148156	6665	47806
1	148172406	6666	46110
1	148197187	6667	48919
1	148221774	6668	47594
1	148246153	6669	46852
1	148270313	6670	46587
1	148294665	6671	47647
1	148319066	6672	47223
1	148343777	6673	48230
1	148368230	6674	47276
1	148392597	6675	46958
1	148417013	6676	47382
1	148441732	6677	47594
1	148466063	6678	47170
1	148490343	6679	47806
1	148514591	6680	46534
1	148538845	6681	46693
1	148563193	6682	47647
1	148587654	6683	46799
1	148611894	6684	47223
1	148636121	6685	46958
1	148660699	6686	47594
1	148684884	6687	47170
1	148709042	6688	46481
1	148733559	6689	47806
1	148757513	6690	46640
1	148781694	6691	46693
1	148806376	6692	47912
1	148830670	6693	46958
1	148855281	6694	47700
1	148879552	6695	46640
1	148903758	6696	47276
1	148928402	6697	47753
1	148952718	6698	46958
1	148976917	6699	47488
1	149001061	6700	46216
1	149025391	6701	47700
1	149049514	6702	45845
1	149074012	6703	47859
1	149098073	6704	47488
1	149122166	6705	46481
1	149146501	6706	46587
1	149171001	6707	47700
1	149195402	6708	47223
1	149219572	6709	46587
1	149243777	6710	46905
1	149267965	6711	46587
1	149292215	6712	47382
1	149316424	6713	46640
1	149340565	6714	47276
1	149364802	6715	46958
1	149388893	6716	46322
1	149413126	6717	47276
1	149437330	6718	46269
1	149461398	6719	46640
1	149485755	6720	47488
1	149509654	6721	46693
1	149533825	6722	46746
1	149558414	6723	47541
1	149582518	6724	46587
1	149607034	6725	47912
1	149631248	6726	46587
1	149655264	6727	46428
1	149679489	6728	46852
1	149703515	6729	46057
1	149727627	6730	47170
1	149751815	6731	47382
1	149775850	6732	46110
1	149800112	6733	47329
1	149824249	6734	46799
1	149848808	6735	47647
1	149873124	6736	47170
1	149897417	6737	46799
1	149921862	6738	47329
1	149946134	6739	46852
1	149970299	6740	47064
1	149994313	6741	46693
1	150018715	6742	47329
1	150042827	6743	46163
1	150067172	6744	47435
1	150091495	6745	46746
1	150115588	6746	47117
1	150139860	6747	46746
1	150164011	6748	47276
1	150188175	6749	46216
1	150212345	6750	46958
1	150236688	6751	47064
1	150261127	6752	47965
1	150285743	6753	47488
1	150309805	6754	46481
1	150334441	6755	47541
1	150358936	6756	47435
1	150383216	6757	46958
1	150407345	6758	46852
1	150431583	6759	46534
1	150456203	6760	48389
1	150480327	6761	46905
1	150504257	6762	46057
1	150528122	6763	46269
1	150552409	6764	46905
1	150576555	6765	47117
1	150600837	6766	46693
1	150625112	6767	46587
1	150649463	6768	47753
1	150673618	6769	47170
1	150697665	6770	45845
1	150721994	6771	47276
1	150746348	6772	47435
1	150770745	6773	47276
1	150795144	6774	47700
1	150819439	6775	46746
1	150843817	6776	47382
1	150868230	6777	47117
1	150892481	6778	46640
1	150916879	6779	47435
1	150941274	6780	47117
1	150965842	6781	47700
1	150990203	6782	47382
1	151014373	6783	46905
1	151038933	6784	47647
1	151063438	6785	47276
1	151087766	6786	47382
1	151112074	6787	46852
1	151135984	6788	46428
1	151160419	6789	47594
1	151184505	6790	46322
1	151208853	6791	47276
1	151232966	6792	46534
1	151256992	6793	46216
1	151280870	6794	46640
1	151304745	6795	46004
1	151328551	6796	46481
1	151352331	6797	45633
1	151375962	6798	46481
1	151399957	6799	45739
1	151423927	6800	47488
1	151447690	6801	45527
1	151471551	6802	46322
1	151495274	6803	45898
1	151519197	6804	46375
1	151542867	6805	45315
1	151567211	6806	47382
1	151591051	6807	46481
1	151614847	6808	46057
1	151638906	6809	46322
1	151663065	6810	46746
1	151686974	6811	46110
1	151711134	6812	47223
1	151735067	6813	46322
1	151758672	6814	45898
1	151782629	6815	46693
1	151806634	6816	45951
1	151830676	6817	46799
1	151854524	6818	46110
1	151878755	6819	47064
1	151902866	6820	46958
1	151926608	6821	45792
1	151950448	6822	46269
1	151974426	6823	46269
1	151998441	6824	46693
1	152022711	6825	47276
1	152046821	6826	46375
1	152070587	6827	46110
1	152094753	6828	46852
1	152118763	6829	46481
1	152142716	6830	45845
1	152166877	6831	46693
1	152190829	6832	47064
1	152214991	6833	46481
1	152239161	6834	46852
1	152263101	6835	46852
1	152287186	6836	46163
1	152311286	6837	46852
1	152334992	6838	45527
1	152359021	6839	47117
1	152382841	6840	46269
1	152406921	6841	46640
1	152430949	6842	46110
1	152455313	6843	47594
1	152479413	6844	46640
1	152503295	6845	46640
1	152527305	6846	46110
1	152551596	6847	47117
1	152575490	6848	46216
1	152599481	6849	46216
1	152624014	6850	47806
1	152648188	6851	46799
1	152672499	6852	47117
1	152696669	6853	46640
1	152720934	6854	47700
1	152745308	6855	47064
1	152769175	6856	45845
1	152793382	6857	47647
1	152817726	6858	47064
1	152842022	6859	46693
1	152866136	6860	46534
1	152890044	6861	46746
1	152914100	6862	46428
1	152938192	6863	46693
1	152962384	6864	46852
1	152986317	6865	46428
1	153010390	6866	46322
1	153034348	6867	46799
1	153058449	6868	46640
1	153082771	6869	47011
1	153106962	6870	47064
1	153131205	6871	47064
1	153155345	6872	46269
1	153179346	6873	47223
1	153203598	6874	47011
1	153227831	6875	46322
1	153252165	6876	47170
1	153276412	6877	47170
1	153300642	6878	46481
1	153324861	6879	47276
1	153349312	6880	47170
1	153373655	6881	47488
1	153397940	6882	46799
1	153422182	6883	47064
1	153446304	6884	46799
1	153470385	6885	46375
1	153494305	6886	46428
1	153518371	6887	47064
1	153542615	6888	46587
1	153566559	6889	46428
1	153590713	6890	46905
1	153614603	6891	46004
1	153638750	6892	47064
1	153662667	6893	46481
1	153686750	6894	46375
1	153710885	6895	47170
1	153734991	6896	46481
1	153758865	6897	45527
1	153782962	6898	47011
1	153806909	6899	46640
1	153831304	6900	47329
1	153855116	6901	46163
1	153878997	6902	45792
1	153903345	6903	47435
1	153927570	6904	47064
1	153951797	6905	47117
1	153975809	6906	46269
1	154000001	6907	47329
1	154023676	6908	45474
1	154047546	6909	46640
1	154071722	6910	46534
1	154095661	6911	46375
1	154119869	6912	46852
1	154143738	6913	46269
1	154167829	6914	46746
1	154191824	6915	46375
1	154215788	6916	46534
1	154239847	6917	46269
1	154263958	6918	46534
1	154287924	6919	47011
1	154312143	6920	47276
1	154336255	6921	46163
1	154360172	6922	46216
1	154384191	6923	46852
1	154408144	6924	46428
1	154432385	6925	46905
1	154456531	6926	46534
1	154480753	6927	47382
1	154504819	6928	46640
1	154529000	6929	46587
1	154553303	6930	47064
1	154577457	6931	47117
1	154601456	6932	46534
1	154625669	6933	46587
1	154649895	6934	46958
1	154674108	6935	46905
1	154698524	6936	47170
1	154722940	6937	47382
1	154747173	6938	46905
1	154771430	6939	47064
1	154795284	6940	46216
1	154819630	6941	47170
1	154844178	6942	47276
1	154868392	6943	47170
1	154892818	6944	47488
1	154916920	6945	46905
1	154941133	6946	46534
1	154965055	6947	46375
1	154989071	6948	46852
1	155013148	6949	46534
1	155037293	6950	46852
1	155061738	6951	47329
1	155085854	6952	46534
1	155110011	6953	46852
1	155134295	6954	47647
1	155158633	6955	46587
1	155182582	6956	46375
1	155206527	6957	46799
1	155230292	6958	45315
1	155254296	6959	47170
1	155278205	6960	46163
1	155302184	6961	46216
1	155326049	6962	46481
1	155350184	6963	46269
1	155374297	6964	47276
1	155398103	6965	46110
1	155422121	6966	46587
1	155446074	6967	46216
1	155470153	6968	47223
1	155493847	6969	45474
1	155517774	6970	45845
1	155541889	6971	47011
1	155566030	6972	46587
1	155589767	6973	46269
1	155613661	6974	46269
1	155637467	6975	46110
1	155661149	6976	45951
1	155685078	6977	46428
1	155708699	6978	45739
1	155732364	6979	45686
1	155755882	6980	45580
1	155779404	6981	45792
1	155802937	6982	45527
1	155826506	6983	45474
1	155850137	6984	46110
1	155873782	6985	45527
1	155897608	6986	46322
1	155921618	6987	46481
1	155945303	6988	45580
1	155969001	6989	46322
1	155993001	6990	46587
1	156016312	6991	44732
1	156040031	6992	46163
1	156064072	6993	46534
1	156088042	6994	46587
1	156111877	6995	46004
1	156135611	6996	45951
1	156159396	6997	46216
1	156183045	6998	45739
1	156206831	6999	46004
1	156230899	7000	46693
1	156255014	7001	47011
1	156279039	7002	46004
1	156303121	7003	47064
1	156326946	7004	46216
1	156351206	7005	47011
1	156375298	7006	46587
1	156399234	7007	46057
1	156423086	7008	46852
1	156447443	7009	46958
1	156471526	7010	46640
1	156495685	7011	46746
1	156519656	7012	46216
1	156543393	7013	46110
1	156567013	7014	46163
1	156591418	7015	47011
1	156615217	7016	46534
1	156639511	7017	46481
1	156663507	7018	47011
1	156686905	7019	44944
1	156711084	7020	46852
1	156734769	7021	45633
1	156758986	7022	46852
1	156782669	7023	46110
1	156806580	7024	46534
1	156830513	7025	46004
1	156854202	7026	46587
1	156878321	7027	46481
1	156902325	7028	46057
1	156926170	7029	46216
1	156950411	7030	46905
1	156974631	7031	47011
1	156998537	7032	46799
1	157022793	7033	46905
1	157046891	7034	46216
1	157070847	7035	47011
1	157094871	7036	46110
1	157118922	7037	46428
1	157142959	7038	46746
1	157167043	7039	46958
1	157191109	7040	46110
1	157215027	7041	46269
1	157239241	7042	46799
1	157263374	7043	47276
1	157287225	7044	46110
1	157311321	7045	46746
1	157335389	7046	45951
1	157359454	7047	47382
1	157383327	7048	46322
1	157407234	7049	46322
1	157430718	7050	45474
1	157454637	7051	45951
1	157478658	7052	46852
1	157503014	7053	46905
1	157526786	7054	46534
1	157550881	7055	45421
1	157574593	7056	47276
1	157598669	7057	45792
1	157622781	7058	47223
1	157646887	7059	46216
1	157670807	7060	46746
1	157694823	7061	46534
1	157718832	7062	46375
1	157742693	7063	46375
1	157766930	7064	46799
1	157791207	7065	46746
1	157815148	7066	46428
1	157839135	7067	46587
1	157863111	7068	46852
1	157887265	7069	46163
1	157911172	7070	46640
1	157935305	7071	47223
1	157959211	7072	45474
1	157983012	7073	46693
1	158007171	7074	46905
1	158031375	7075	46799
1	158055516	7076	47170
1	158079327	7077	45633
1	158103114	7078	45845
1	158127245	7079	47011
1	158151277	7080	46110
1	158174983	7081	46587
1	158198726	7082	46110
1	158222273	7083	44997
1	158246397	7084	46958
1	158270515	7085	46905
1	158294204	7086	45792
1	158317884	7087	46057
1	158341492	7088	46163
1	158365039	7089	44891
1	158388738	7090	46269
1	158412367	7091	45739
1	158436169	7092	46163
1	158460092	7093	45739
1	158483588	7094	46004
1	158507227	7095	45633
1	158530967	7096	46375
1	158554823	7097	46322
1	158578429	7098	45103
1	158601937	7099	45739
1	158625745	7100	46110
1	158649348	7101	45474
1	158673034	7102	46110
1	158696830	7103	46057
1	158720340	7104	45739
1	158744426	7105	46587
1	158767909	7106	45368
1	158791752	7107	46322
1	158815408	7108	45845
1	158838804	7109	45421
1	158862697	7110	46216
1	158886272	7111	45739
1	158909821	7112	45898
1	158933648	7113	46163
1	158957491	7114	45951
1	158981130	7115	45898
1	159004898	7116	45898
1	159028615	7117	45845
1	159052384	7118	45739
1	159076303	7119	46693
1	159099977	7120	45686
1	159123878	7121	46428
1	159148113	7122	46958
1	159172227	7123	46905
1	159195949	7124	46004
1	159220007	7125	45951
1	159244038	7126	46852
1	159267958	7127	46163
1	159292186	7128	47170
1	159316222	7129	46481
1	159340244	7130	46693
1	159364406	7131	46534
1	159388472	7132	46905
1	159412446	7133	46163
1	159436728	7134	47011
1	159460669	7135	46799
1	159484545	7136	46110
1	159508538	7137	46428
1	159532436	7138	46216
1	159556116	7139	45845
1	159579833	7140	45845
1	159603959	7141	46958
1	159628049	7142	46799
1	159652130	7143	46587