version 2
run AimdCC-2-20100909-19:50:55-4488
attr configname AimdCC
attr datetime 20100909-19:50:55
attr experiment AimdCC
attr inifile D:/Developement/Oversim2/multic/simulations/omnetpp.ini
attr iterationvars $rateIncoming=200000
attr iterationvars2 "$rateIncoming=200000, $repetition=0"
attr measurement $rateIncoming=200000
attr network oversim.underlay.simpleunderlay.SimpleUnderlayNetwork
attr processid 4488
attr rateIncoming 200000
attr repetition 0
attr replication #0
attr resultdir results
attr runnumber 2
attr seedset 2

vector 1  SimpleUnderlayNetwork.globalObserver.globalStatistics  incoming_bytes  ETV
vector 2  SimpleUnderlayNetwork.globalObserver.globalStatistics  drops  ETV
vector 3  SimpleUnderlayNetwork.globalObserver.globalStatistics  delayed_acks  ETV
vector 4  SimpleUnderlayNetwork.globalObserver.globalStatistics  timetotimeouts  ETV
vector 5  SimpleUnderlayNetwork.globalObserver.globalStatistics  9rateOf1To0  ETV
vector 6  SimpleUnderlayNetwork.globalObserver.globalStatistics  max9RateOf1To0  ETV
vector 7  SimpleUnderlayNetwork.globalObserver.globalStatistics  9rateOf1To1  ETV
vector 8  SimpleUnderlayNetwork.globalObserver.globalStatistics  max9RateOf1To1  ETV
vector 9  SimpleUnderlayNetwork.globalObserver.globalStatistics  9rateOf1To2  ETV
vector 10  SimpleUnderlayNetwork.globalObserver.globalStatistics  max9RateOf1To2  ETV
vector 11  SimpleUnderlayNetwork.globalObserver.globalStatistics  9rateOf1To3  ETV
vector 12  SimpleUnderlayNetwork.globalObserver.globalStatistics  max9RateOf1To3  ETV
vector 13  SimpleUnderlayNetwork.globalObserver.globalStatistics  9rateOf1To4  ETV
vector 14  SimpleUnderlayNetwork.globalObserver.globalStatistics  max9RateOf1To4  ETV
vector 15  SimpleUnderlayNetwork.globalObserver.globalStatistics  9rateOf1To5  ETV
vector 16  SimpleUnderlayNetwork.globalObserver.globalStatistics  max9RateOf1To5  ETV
vector 17  SimpleUnderlayNetwork.globalObserver.globalStatistics  9rateOf1To6  ETV
vector 18  SimpleUnderlayNetwork.globalObserver.globalStatistics  max9RateOf1To6  ETV
vector 19  SimpleUnderlayNetwork.globalObserver.globalStatistics  9rateOf1To7  ETV
vector 20  SimpleUnderlayNetwork.globalObserver.globalStatistics  max9RateOf1To7  ETV
vector 21  SimpleUnderlayNetwork.globalObserver.globalStatistics  9rateOf1To8  ETV
vector 22  SimpleUnderlayNetwork.globalObserver.globalStatistics  max9RateOf1To8  ETV
vector 23  SimpleUnderlayNetwork.globalObserver.globalStatistics  9rateOf1To9  ETV
vector 24  SimpleUnderlayNetwork.globalObserver.globalStatistics  max9RateOf1To9  ETV
vector 25  SimpleUnderlayNetwork.globalObserver.globalStatistics  1rate  ETV
vector 26  SimpleUnderlayNetwork.globalObserver.globalStatistics  max2Rate  ETV
vector 27  SimpleUnderlayNetwork.globalObserver.globalStatistics  "GlobalNodeList: Number of nodes"  ETV
vector 28  SimpleUnderlayNetwork.globalObserver.globalStatistics  "GlobalNodeList: Number of bootstrapped malicious nodes"  ETV
1	97425977	6018	29574
1	97440770	6019	28938
1	97455886	6020	28938
1	97471308	6021	29733
1	97486733	6022	29733
1	97502033	6023	29839
1	97517171	6024	28620
1	97532576	6025	29892
1	97547481	6026	28726
1	97562768	6027	29468
1	97577892	6028	29256
1	97593268	6029	29733
1	97608403	6030	28885
1	97623482	6031	29097
1	97638616	6032	29097
1	97653859	6033	29680
1	97669394	6034	29839
1	97684554	6035	29309
1	97700057	6036	29998
1	97715421	6037	29786
1	97730853	6038	29733
1	97746033	6039	29468
1	97761638	6040	29786
1	97777051	6041	29680
1	97792558	6042	30422
1	97808102	6043	29733
1	97823689	6044	30104
1	97839043	6045	29362
1	97854419	6046	30316
1	97870088	6047	30104
1	97885482	6048	29786
1	97901102	6049	29733
1	97916568	6050	30157
1	97932318	6051	30210
1	97947716	6052	29680
1	97963436	6053	30210
1	97978893	6054	29892
1	97994416	6055	30316
1	98010170	6056	29892
1	98026027	6057	30846
1	98041815	6058	30740
1	98057703	6059	30740
1	98073147	6060	29627
1	98088881	6061	30581
1	98104808	6062	30475
1	98120448	6063	30263
1	98136161	6064	30263
1	98151970	6065	30528
1	98167438	6066	29415
1	98183102	6067	30210
1	98198548	6068	29998
1	98214195	6069	30051
1	98229719	6070	30051
1	98245498	6071	30422
1	98260865	6072	29627
1	98276264	6073	29892
1	98291918	6074	29945
1	98307719	6075	30634
1	98323240	6076	30104
1	98338949	6077	30528
1	98354610	6078	30157
1	98370446	6079	30581
1	98386304	6080	30528
1	98402209	6081	30687
1	98417628	6082	29256
1	98433091	6083	29945
1	98448788	6084	30475
1	98464429	6085	30157
1	98480024	6086	29892
1	98495764	6087	30581
1	98511434	6088	30475
1	98526925	6089	29309
1	98542332	6090	30051
1	98558069	6091	30422
1	98573755	6092	30263
1	98589629	6093	30369
1	98605153	6094	30104
1	98621095	6095	30846
1	98636997	6096	30687
1	98652549	6097	30051
1	98668222	6098	30104
1	98684094	6099	30687
1	98699589	6100	29998
1	98715115	6101	29574
1	98730882	6102	30475
1	98746391	6103	29998
1	98761883	6104	30263
1	98777725	6105	30369
1	98793460	6106	30369
1	98809069	6107	30157
1	98824728	6108	29945
1	98840230	6109	30475
1	98855723	6110	29627
1	98871329	6111	30157
1	98887146	6112	30475
1	98902749	6113	30051
1	98918546	6114	30475
1	98934242	6115	30581
1	98949960	6116	29945
1	98965817	6117	30793
1	98981550	6118	30422
1	98997168	6119	29892
1	99013059	6120	31005
1	99028696	6121	30104
1	99044357	6122	30051
1	99060247	6123	30740
1	99076091	6124	30687
1	99091676	6125	30316
1	99107451	6126	30157
1	99123364	6127	30581
1	99139027	6128	30263
1	99154821	6129	30687
1	99170478	6130	29998
1	99186243	6131	30687
1	99201837	6132	29786
1	99217928	6133	31535
1	99233925	6134	30634
1	99249613	6135	30528
1	99265633	6136	31111
1	99281370	6137	30210
1	99297110	6138	29945
1	99312870	6139	30263
1	99328608	6140	30422
1	99344194	6141	30263
1	99359524	6142	29415
1	99374901	6143	29574
1	99390504	6144	30157
1	99406158	6145	30475
1	99421925	6146	30369
1	99437532	6147	30051
1	99453179	6148	29892
1	99468879	6149	30475
1	99484754	6150	30793
1	99500196	6151	29627
1	99515628	6152	29892
1	99531134	6153	29945
1	99546406	6154	29521
1	99562242	6155	30316
1	99577606	6156	29627
1	99592946	6157	29733
1	99608294	6158	29574
1	99623803	6159	29839
1	99639402	6160	30581
1	99655062	6161	29892
1	99670321	6162	29415
1	99685852	6163	30104
1	99701256	6164	29627
1	99716508	6165	30104
1	99732183	6166	29521
1	99747611	6167	30051
1	99762922	6168	29415
1	99778342	6169	29892
1	99793862	6170	30157
1	99809685	6171	30422
1	99825331	6172	29786
1	99840663	6173	29998
1	99856353	6174	30104
1	99871761	6175	29627
1	99887315	6176	30104
1	99902985	6177	30263
1	99918607	6178	30369
1	99934103	6179	30104
1	99949790	6180	29945
1	99965223	6181	29892
1	99980977	6182	30104
1	99996793	6183	30740
1	100012480	6184	30210
1	100028182	6185	30263
1	100043849	6186	30422
1	100059369	6187	29892
1	100074795	6188	29680
1	100090731	6189	30793
1	100106659	6190	30952
1	100122450	6191	30104
1	100138005	6192	29998
1	100153786	6193	30316
1	100169688	6194	30952
1	100185389	6195	30263
1	100201275	6196	30634
1	100217001	6197	30210
1	100232676	6198	30475
1	100248412	6199	30687
1	100264339	6200	30475
1	100279858	6201	29945
1	100295750	6202	30740
1	100311540	6203	30104
1	100327355	6204	30687
1	100343106	6205	30422
1	100359125	6206	30952
1	100374877	6207	29892
1	100390595	6208	30475
1	100406630	6209	31164
1	100422171	6210	30051
1	100438161	6211	30846
1	100453763	6212	30051
1	100469802	6213	31005
1	100485647	6214	30793
1	100501466	6215	30263
1	100517003	6216	29945
1	100532901	6217	30899
1	100548630	6218	30210
1	100564344	6219	30369
1	100580033	6220	30104
1	100595898	6221	30740
1	100611601	6222	30210
1	100627280	6223	30740
1	100643196	6224	30687
1	100658734	6225	29309
1	100674703	6226	31270
1	100690598	6227	30687
1	100706189	6228	29892
1	100722039	6229	30740
1	100737984	6230	30687
1	100753755	6231	30422
1	100769462	6232	30263
1	100785206	6233	30528
1	100801053	6234	30528
1	100816913	6235	30740
1	100832811	6236	30899
1	100848714	6237	30475
1	100864619	6238	30687
1	100880326	6239	30581
1	100896023	6240	30104
1	100911676	6241	30051
1	100927526	6242	30581
1	100943165	6243	30263
1	100959055	6244	30634
1	100974816	6245	30581
1	100990713	6246	30687
1	101006423	6247	30475
1	101022444	6248	30422
1	101038316	6249	30952
1	101054143	6250	30528
1	101069948	6251	30634
1	101085635	6252	30157
1	101101524	6253	30369
1	101117457	6254	30846
1	101133362	6255	30899
1	101149179	6256	30104
1	101165055	6257	30793
1	101180935	6258	30952
1	101196953	6259	30846
1	101212930	6260	30740
1	101228938	6261	31058
1	101244649	6262	30528
1	101260549	6263	30316
1	101276763	6264	31641
1	101292408	6265	29998
1	101308312	6266	30581
1	101324152	6267	31058
1	101340097	6268	30475
1	101355978	6269	30740
1	101371815	6270	31005
1	101387843	6271	30210
1	101403680	6272	30528
1	101419511	6273	30899
1	101435548	6274	30793
1	101451385	6275	30316
1	101467193	6276	30793
1	101483328	6277	31270
1	101499407	6278	30952
1	101515444	6279	31058
1	101531311	6280	30634
1	101546727	6281	29892
1	101562508	6282	30316
1	101578350	6283	30475
1	101594304	6284	30369
1	101610091	6285	30475
1	101626010	6286	31376
1	101642122	6287	31111
1	101658292	6288	30952
1	101674373	6289	30952
1	101690281	6290	30475
1	101706053	6291	30634
1	101721945	6292	30687
1	101737551	6293	30369
1	101753519	6294	30687
1	101769511	6295	30475
1	101785248	6296	31005
1	101801230	6297	30634
1	101817454	6298	31058
1	101833291	6299	30740
1	101849172	6300	30210
1	101865039	6301	30846
1	101880955	6302	30475
1	101896974	6303	31164
1	101912778	6304	30634
1	101928584	6305	30528
1	101944506	6306	30475
1	101960485	6307	31058
1	101976277	6308	30422
1	101991932	6309	29945
1	102007825	6310	30846
1	102023731	6311	30740
1	102039530	6312	30157
1	102055226	6313	30210
1	102071283	6314	31376
1	102087209	6315	30528
1	102102861	6316	30157
1	102118700	6317	30846
1	102134856	6318	31217
1	102150768	6319	30475
1	102166809	6320	30740
1	102182769	6321	31111
1	102198583	6322	30581
1	102214451	6323	30846
1	102230226	6324	29839
1	102246233	6325	31058
1	102262298	6326	30740
1	102278299	6327	31217
1	102294211	6328	31164
1	102310155	6329	30528
1	102326065	6330	30899
1	102342101	6331	30369
1	102357996	6332	30846
1	102373929	6333	30846
1	102389865	6334	30634
1	102405948	6335	31217
1	102422121	6336	31270
1	102438042	6337	30899
1	102454197	6338	30952
1	102470311	6339	30899
1	102486361	6340	31005
1	102502459	6341	31058
1	102518531	6342	31005
1	102534655	6343	31694
1	102550619	6344	30634
1	102566897	6345	31535
1	102582836	6346	30369
1	102598688	6347	30634
1	102615004	6348	31535
1	102630988	6349	30793
1	102646879	6350	30793
1	102662980	6351	31164
1	102679183	6352	31270
1	102695390	6353	31164
1	102711704	6354	31588
1	102727827	6355	30952
1	102744246	6356	31535
1	102760433	6357	31800
1	102776552	6358	31058
1	102793005	6359	31853
1	102809228	6360	31058
1	102825509	6361	31270
1	102841799	6362	31588
1	102857968	6363	31111
1	102874276	6364	31482
1	102890609	6365	31747
1	102906960	6366	31164
1	102923245	6367	31800
1	102939655	6368	31800
1	102955907	6369	31164
1	102971991	6370	31005
1	102988379	6371	31535
1	103004424	6372	30952
1	103020829	6373	31747
1	103037020	6374	31005
1	103053452	6375	31959
1	103069682	6376	31270
1	103085693	6377	30899
1	103102133	6378	31376
1	103118485	6379	32171
1	103134752	6380	31376
1	103151114	6381	31429
1	103167697	6382	32330
1	103184031	6383	31323
1	103200545	6384	31959
1	103216559	6385	30740
1	103233259	6386	32277
1	103249788	6387	32012
1	103265997	6388	31270
1	103282401	6389	31800
1	103298600	6390	30740
1	103314779	6391	31535
1	103330902	6392	31217
1	103347426	6393	31641
1	103363761	6394	31641
1	103379889	6395	31217
1	103396324	6396	31694
1	103412730	6397	31641
1	103428931	6398	31376
1	103445291	6399	31376
1	103461759	6400	31906
1	103478204	6401	32171
1	103494984	6402	32330
1	103511356	6403	31482
1	103527694	6404	31535
1	103544320	6405	32118
1	103560588	6406	31005
1	103577166	6407	32330
1	103593825	6408	32118
1	103610346	6409	32171
1	103626828	6410	31376
1	103643138	6411	31482
1	103659614	6412	31853
1	103675973	6413	31853
1	103692599	6414	32065
1	103709124	6415	31482
1	103725307	6416	31111
1	103741674	6417	32012
1	103758207	6418	32012
1	103774844	6419	32065
1	103791243	6420	31376
1	103807516	6421	31429
1	103823849	6422	31535
1	103840382	6423	32065
1	103856875	6424	32012
1	103873084	6425	30740
1	103889352	6426	31482
1	103905640	6427	31906
1	103922398	6428	32277
1	103938776	6429	31482
1	103955326	6430	32277
1	103971907	6431	31641
1	103988353	6432	31959
1	104004879	6433	31800
1	104021455	6434	31959
1	104038033	6435	31853
1	104054332	6436	31535
1	104071034	6437	32277
1	104087283	6438	31323
1	104103663	6439	31959
1	104120412	6440	31694
1	104137043	6441	32436
1	104153603	6442	32489
1	104170411	6443	32118
1	104186785	6444	31429
1	104203217	6445	32065
1	104219610	6446	31588
1	104236014	6447	31376
1	104252635	6448	32277
1	104269001	6449	31641
1	104285472	6450	31694
1	104301972	6451	31906
1	104318706	6452	31959
1	104334982	6453	31641
1	104351251	6454	31588
1	104367947	6455	32224
1	104384266	6456	31164
1	104400566	6457	31853
1	104417174	6458	32012
1	104433887	6459	32224
1	104450326	6460	31588
1	104466646	6461	31429
1	104483443	6462	32436
1	104499851	6463	31959
1	104516295	6464	31535
1	104532816	6465	31906
1	104549590	6466	32436
1	104566002	6467	31906
1	104582557	6468	32118
1	104599144	6469	31747
1	104615484	6470	31270
1	104632179	6471	32489
1	104648632	6472	31694
1	104665228	6473	32065
1	104681906	6474	32595
1	104698425	6475	31747
1	104714949	6476	32118
1	104731549	6477	31747
1	104747975	6478	31853
1	104764466	6479	31641
1	104780946	6480	31694
1	104797376	6481	31906
1	104813963	6482	32277
1	104830576	6483	32012
1	104847098	6484	31906
1	104863624	6485	31959
1	104880027	6486	31376
1	104896307	6487	31482
1	104912589	6488	31482
1	104929011	6489	31959
1	104945429	6490	31853
1	104961836	6491	31482
1	104978331	6492	31800
1	104994737	6493	31429
1	105011004	6494	31694
1	105027525	6495	31906
1	105043898	6496	31429
1	105060303	6497	31694
1	105077096	6498	32542
1	105093333	6499	31429
1	105109691	6500	31641
1	105126021	6501	31376
1	105142283	6502	31694
1	105158790	6503	31482
1	105175322	6504	32171
1	105191671	6505	31111
1	105208042	6506	31853
1	105224295	6507	31588
1	105240483	6508	31217
1	105257131	6509	32171
1	105273151	6510	30475
1	105289587	6511	31429
1	105305893	6512	31959
1	105321984	6513	31111
1	105338354	6514	31641
1	105354872	6515	31535
1	105370917	6516	31005
1	105387220	6517	31800
1	105403428	6518	30899
1	105419491	6519	30952
1	105435460	6520	31164
1	105451525	6521	31111
1	105467547	6522	30952
1	105483643	6523	30952
1	105499893	6524	31323
1	105515889	6525	30899
1	105531733	6526	30475
1	105547916	6527	31164
1	105563872	6528	31376
1	105579972	6529	30793
1	105596219	6530	31005
1	105612288	6531	31005
1	105628461	6532	31217
1	105644508	6533	31217
1	105660513	6534	30899
1	105676692	6535	31482
1	105693042	6536	31376
1	105708973	6537	30740
1	105725417	6538	32118
1	105741596	6539	30793
1	105757698	6540	31217
1	105773637	6541	30952
1	105789713	6542	30899
1	105805728	6543	30899
1	105821930	6544	31588
1	105838069	6545	31005
1	105854237	6546	30740
1	105870588	6547	32065
1	105886668	6548	30740
1	105902953	6549	31270
1	105919070	6550	31429
1	105935178	6551	31323
1	105951277	6552	30846
1	105967215	6553	31164
1	105983582	6554	31164
1	105999567	6555	30634
1	106015921	6556	31482
1	106031832	6557	30846
1	106047663	6558	30793
1	106063762	6559	30793
1	106079849	6560	30846
1	106095804	6561	30899
1	106111893	6562	31058
1	106127840	6563	30528
1	106144212	6564	31959
1	106160325	6565	31058
1	106176197	6566	30846
1	106192412	6567	31164
1	106208399	6568	30846
1	106224684	6569	31323
1	106240593	6570	30634
1	106256734	6571	31270
1	106272831	6572	30952
1	106288744	6573	30740
1	106304887	6574	31323
1	106320563	6575	30051
1	106336498	6576	30740
1	106352456	6577	30740
1	106368590	6578	31270
1	106384617	6579	31111
1	106400438	6580	30634
1	106416700	6581	31429
1	106432570	6582	30475
1	106448573	6583	30740
1	106464298	6584	30475
1	106480334	6585	30899
1	106496248	6586	30687
1	106512427	6587	31588
1	106528373	6588	30687
1	106544400	6589	30422
1	106560424	6590	31217
1	106576372	6591	30528
1	106592366	6592	31111
1	106608317	6593	30846
1	106624407	6594	30952
1	106640442	6595	31164
1	106656445	6596	30528
1	106672309	6597	30369
1	106688242	6598	30952
1	106704269	6599	31217
1	106720057	6600	30263
1	106736138	6601	30952
1	106751948	6602	30422
1	106768052	6603	31535
1	106783859	6604	30422
1	106800322	6605	31694
1	106816560	6606	31429
1	106832561	6607	30422
1	106848765	6608	31694
1	106864751	6609	30740
1	106880811	6610	31058
1	106896834	6611	30581
1	106912774	6612	30740
1	106928732	6613	30846
1	106944911	6614	31376
1	106961120	6615	31270
1	106977023	6616	30793
1	106993149	6617	30793
1	107009216	6618	31111
1	107025640	6619	32012
1	107041722	6620	31164
1	107057714	6621	30051
1	107073686	6622	31058
1	107089733	6623	31111
1	107105629	6624	30422
1	107121459	6625	30581
1	107137325	6626	30793
1	107153064	6627	30263
1	107169124	6628	31058
1	107185060	6629	31058
1	107200787	6630	30210
1	107216752	6631	31058
1	107232589	6632	30210
1	107248544	6633	30846
1	107264567	6634	30687
1	107280422	6635	30581
1	107296202	6636	30634
1	107312090	6637	30846
1	107328391	6638	31111
1	107344315	6639	30952
1	107360345	6640	31005
1	107376406	6641	30581
1	107392195	6642	30740
1	107408353	6643	30952
1	107424377	6644	31270
1	107440580	6645	31111
1	107456812	6646	31164
1	107472694	6647	30952
1	107488665	6648	30952
1	107504771	6649	30687
1	107520652	6650	31270
1	107536845	6651	30952
1	107552784	6652	30687
1	107568929	6653	30899
1	107584784	6654	30793
1	107600807	6655	30952
1	107616950	6656	31005
1	107632995	6657	30952
1	107648899	6658	31164
1	107665051	6659	31111
1	107681216	6660	31217
1	107697135	6661	30369
1	107713162	6662	31482
1	107729157	6663	30369
1	107745118	6664	30952
1	107761068	6665	30528
1	107776852	6666	30687
1	107792988	6667	31535
1	107808950	6668	30475
1	107825237	6669	31323
1	107841061	6670	30740
1	107857247	6671	31270
1	107873078	6672	30369
1	107888888	6673	30740
1	107904721	6674	30581
1	107920649	6675	30422
1	107936619	6676	31058
1	107952632	6677	31058
1	107968641	6678	30528
1	107984689	6679	31058
1	108000478	6680	30157
1	108016462	6681	31058
1	108032363	6682	30316
1	108048333	6683	31535
1	108064241	6684	30369
1	108079956	6685	30263
1	108095934	6686	31111
1	108111859	6687	30634
1	108127870	6688	30634
1	108143768	6689	30793
1	108159639	6690	30263
1	108175443	6691	30528
1	108191532	6692	31111
1	108207412	6693	30740
1	108223474	6694	30846
1	108239578	6695	30793
1	108255594	6696	31323
1	108271705	6697	31111
1	108287610	6698	30475
1	108303639	6699	31217
1	108319796	6700	30846
1	108335833	6701	31058
1	108351707	6702	30581
1	108367667	6703	30740
1	108383673	6704	30581
1	108399519	6705	30793
1	108415476	6706	31005
1	108431489	6707	30581
1	108447410	6708	31270
1	108463605	6709	31058
1	108479772	6710	31164
1	108495563	6711	30475
1	108511517	6712	30634
1	108527490	6713	30581
1	108543298	6714	30740
1	108559189	6715	30316
1	108575289	6716	31111
1	108591433	6717	31429
1	108607433	6718	30475
1	108623469	6719	31376
1	108639618	6720	31270
1	108655626	6721	30422
1	108671647	6722	30952
1	108687771	6723	31058
1	108703769	6724	31058
1	108719789	6725	30740
1	108735722	6726	30210
1	108751683	6727	31058
1	108767205	6728	29574
1	108782667	6729	30104
1	108798434	6730	30475
1	108814209	6731	30369
1	108829698	6732	29627
1	108845249	6733	30157
1	108860677	6734	30104
1	108876079	6735	29415
1	108891308	6736	29256
1	108906607	6737	29309
1	108922144	6738	30263
1	108937575	6739	29945
1	108952989	6740	29415
1	108968189	6741	29468
1	108983642	6742	30210
1	108998869	6743	28991
1	109014284	6744	29998
1	109030014	6745	30263
1	109045476	6746	29839
1	109060893	6747	29839
1	109076265	6748	29415
1	109091745	6749	30316
1	109107395	6750	30157
1	109122913	6751	29839
1	109138499	6752	29839
1	109153952	6753	29786
1	109169560	6754	30369
1	109185135	6755	30263
1	109200774	6756	29892
1	109216395	6757	29839
1	109232115	6758	30581
1	109247411	6759	29468
1	109262974	6760	30051
1	109278215	6761	29574
1	109293871	6762	30210
1	109309214	6763	29627
1	109324880	6764	29998
1	109340506	6765	30475
1	109356230	6766	29839
1	109371908	6767	30634
1	109387379	6768	29945
1	109403068	6769	29998
1	109418726	6770	30422
1	109434351	6771	30210
1	109449987	6772	29945
1	109465407	6773	29786
1	109480939	6774	30157
1	109496398	6775	29680
1	109512076	6776	30369
1	109527408	6777	29574
1	109542952	6778	29945
1	109558800	6779	30475
1	109574319	6780	30210
1	109589787	6781	29839
1	109605386	6782	30104
1	109621025	6783	30263
1	109636917	6784	30740
1	109652634	6785	29892
1	109668639	6786	31111
1	109684257	6787	30263
1	109700076	6788	30528
1	109715640	6789	29839
1	109731574	6790	30634
1	109747523	6791	31164
1	109763150	6792	29680
1	109778724	6793	29945
1	109794380	6794	30634
1	109810307	6795	30899
1	109826025	6796	30369
1	109841541	6797	29733
1	109857432	6798	30687
1	109873363	6799	30740
1	109889063	6800	30422
1	109904891	6801	30316
1	109920695	6802	30263
1	109936403	6803	30846
1	109952266	6804	31005
1	109968105	6805	29945
1	109983952	6806	30740
1	110000006	6807	30740
1	110015893	6808	31058
1	110031591	6809	30369
1	110047484	6810	30422
1	110063501	6811	31376
1	110079702	6812	30899
1	110095835	6813	31270
1	110111946	6814	31005
1	110128022	6815	31005
1	110144146	6816	31164
1	110159976	6817	30528
1	110175864	6818	30740
1	110191926	6819	30528
1	110207953	6820	31270
1	110224188	6821	31482
1	110240134	6822	30475
1	110256470	6823	31747
1	110272547	6824	31217
1	110288527	6825	30528
1	110304738	6826	31270
1	110320963	6827	31270
1	110336946	6828	30740
1	110352817	6829	30846
1	110368920	6830	31217
1	110384954	6831	30952
1	110400938	6832	30740
1	110416663	6833	30369
1	110432692	6834	30899
1	110448606	6835	30634
1	110464325	6836	30422
1	110480086	6837	30422
1	110495819	6838	30475
1	110511819	6839	31058
1	110527863	6840	30846
1	110543710	6841	30528
1	110559803	6842	31323
1	110575719	6843	30422
1	110591749	6844	31217
1	110607756	6845	30740
1	110624152	6846	31694
1	110640182	6847	31058
1	110656301	6848	31164
1	110672571	6849	31217
1	110688622	6850	30846
1	110704639	6851	31376
1	110720638	6852	30687
1	110736777	6853	31058
1	110752683	6854	30687
1	110768588	6855	30687
1	110784731	6856	30952
1	110800719	6857	31058
1	110816886	6858	31323
1	110832723	6859	30263
1	110848788	6860	31270
1	110864734	6861	30952
1	110880813	6862	30793
1	110896912	6863	31058
1	110913230	6864	31376
1	110929233	6865	31164
1	110945063	6866	30422
1	110961093	6867	30899
1	110977123	6868	31005
1	110993077	6869	30687
1	111009145	6870	31164
1	111024952	6871	30687
1	111041196	6872	31376
1	111057212	6873	30793
1	111073376	6874	30793
1	111089452	6875	31164
1	111105294	6876	30687
1	111121292	6877	30687
1	111137277	6878	31270
1	111153114	6879	30369
1	111168790	6880	30263
1	111184513	6881	30369
1	111200462	6882	30899
1	111216504	6883	30634
1	111232421	6884	30528
1	111248410	6885	31270
1	111264150	6886	30263
1	111280170	6887	30846
1	111296166	6888	31058
1	111312252	6889	31005
1	111328263	6890	30846
1	111344223	6891	30475
1	111360092	6892	30846
1	111376234	6893	31270
1	111391920	6894	30369
1	111407879	6895	30793
1	111423876	6896	31005
1	111439795	6897	30528
1	111455928	6898	31482
1	111471587	6899	29945
1	111487621	6900	31164
1	111503528	6901	30422
1	111519253	6902	30475
1	111535303	6903	30687
1	111551234	6904	30899
1	111566978	6905	30899
1	111583090	6906	30687
1	111599132	6907	30952
1	111615226	6908	31376
1	111630971	6909	29892
1	111647233	6910	30899
1	111663320	6911	31694
1	111679220	6912	30475
1	111695200	6913	31217
1	111711165	6914	30952
1	111727048	6915	30528
1	111743055	6916	30899
1	111758821	6917	30157
1	111774894	6918	31111
1	111790933	6919	30687
1	111806902	6920	31058
1	111822835	6921	30846
1	111838783	6922	30899
1	111854586	6923	30369
1	111870648	6924	30952
1	111886527	6925	30528
1	111902443	6926	30422
1	111918157	6927	30793
1	111934018	6928	30475
1	111949740	6929	30475
1	111965562	6930	30316
1	111981185	6931	30051
1	111996808	6932	29945
1	112012756	6933	31058
1	112028133	6934	29786
1	112043805	6935	29786
1	112059631	6936	30899
1	112075208	6937	29839
1	112090814	6938	29892
1	112106430	6939	30740
1	112122050	6940	29574
1	112137734	6941	30634
1	112153334	6942	30210
1	112168850	6943	30157
1	112184523	6944	29839
1	112200161	6945	30369
1	112215863	6946	30210
1	112231555	6947	30581
1	112247201	6948	30263
1	112262938	6949	30369
1	112278729	6950	29998
1	112294254	6951	30263
1	112309876	6952	29839
1	112325202	6953	29892
1	112340807	6954	30210
1	112356587	6955	30634
1	112372534	6956	30422
1	112388147	6957	29945
1	112404290	6958	31588
1	112419859	6959	29998
1	112435824	6960	30793
1	112451659	6961	30210
1	112467009	6962	29627
1	112482511	6963	29839
1	112497909	6964	29945
1	112513761	6965	30581
1	112529382	6966	30316
1	112545087	6967	30263
1	112560887	6968	30422
1	112576712	6969	30422
1	112592727	6970	30952
1	112608560	6971	30634
1	112624304	6972	30316
1	112639689	6973	29627
1	112655357	6974	30687
1	112670826	6975	29680
1	112686268	6976	29839
1	112701823	6977	29892
1	112717429	6978	30051
1	112732973	6979	29945
1	112748663	6980	30475
1	112764317	6981	30263
1	112780091	6982	30369
1	112795585	6983	29839
1	112810978	6984	29733
1	112826538	6985	30104
1	112842088	6986	30157
1	112857498	6987	29468
1	112872818	6988	29892
1	112888584	6989	30369
1	112904146	6990	29839
1	112919624	6991	29680
1	112935170	6992	30157
1	112950363	6993	29521
1	112965781	6994	29680
1	112981159	6995	29892
1	112996812	6996	29945
1	113012103	6997	29627
1	113027504	6998	30104
1	113042963	6999	29627
1	113058332	7000	29521
1	113073745	7001	30157
1	113089071	7002	29256
1	113104629	7003	29945
1	113120335	7004	30475
1	113136049	7005	30422
1	113151367	7006	29256
1	113166861	7007	29892
1	113182292	7008	29945
1	113197767	7009	30051
1	113213226	7010	29892
1	113228784	7011	30104
1	113244302	7012	29839
1	113259557	7013	29680
1	113274981	7014	29415
1	113290673	7015	30475
1	113306329	7016	29945
1	113321816	7017	30263
1	113337384	7018	29998
1	113352898	7019	30051
1	113368314	7020	29627
1	113383720	7021	30051
1	113399518	7022	30369
1	113415176	7023	30263
1	113430606	7024	29733
1	113446250	7025	30104
1	113462078	7026	30528
1	113477557	7027	29945
1	113493103	7028	29998
1	113508541	7029	30051
1	113524056	7030	29733
1	113539559	7031	29839
1	113555422	7032	30740
1	113571018	7033	29945
1	113586801	7034	30369
1	113602554	7035	30793
1	113618124	7036	30051
1	113633535	7037	29574
1	113649005	7038	29786
1	113664578	7039	30263
1	113680034	7040	29521
1	113695684	7041	30316
1	113711389	7042	30528
1	113727026	7043	29892
1	113742662	7044	30475
1	113757970	7045	29362
1	113773796	7046	30793
1	113789066	7047	29521
1	113804588	7048	29998
1	113820321	7049	30422
1	113836064	7050	30157
1	113851578	7051	29733
1	113867089	7052	30316
1	113882690	7053	29892
1	113898297	7054	30210
1	113913874	7055	30210
1	113929743	7056	30422
1	113945187	7057	29521
1	113960818	7058	31005
1	113976424	7059	29521
1	113991849	7060	29945
1	114007419	7061	30051
1	114023117	7062	30634
1	114038467	7063	29415
1	114054182	7064	30581
1	114069755	7065	30157
1	114085354	7066	29998
1	114100902	7067	29892
1	114116539	7068	30157
1	114132137	7069	29892
1	114147966	7070	30846
1	114163551	7071	29945
1	114179153	7072	30316
1	114194728	7073	29839
1	114210476	7074	30475
1	114226057	7075	30316
1	114241650	7076	30263
1	114257321	7077	29892
1	114273264	7078	30952
1	114289204	7079	31058
1	114305008	7080	30316
1	114320806	7081	30581
1	114336636	7082	30687
1	114352541	7083	30316
1	114368402	7084	30899
1	114383935	7085	29892
1	114399702	7086	30475
1	114415503	7087	30475
1	114431314	7088	30634
1	114447153	7089	30581
1	114462938	7090	30157
1	114478850	7091	31111
1	114494794	7092	30899
1	114510572	7093	30369
1	114526366	7094	30316
1	114542216	7095	30634
1	114558019	7096	30528
1	114573752	7097	30316
1	114589722	7098	30899
1	114605468	7099	30316
1	114621123	7100	30316
1	114636747	7101	30210
1	114652458	7102	30210
1	114668077	7103	29945
1	114683489	7104	29892
1	114698845	7105	29574
1	114714599	7106	30316
1	114730228	7107	30157
1	114745953	7108	30475
1	114761704	7109	30581
1	114777327	7110	30263
1	114792846	7111	29680
1	114808657	7112	30846
1	114824576	7113	30634
1	114840194	7114	30316
1	114855828	7115	30051
1	114871412	7116	29786
1	114886850	7117	30263
1	114902615	7118	30157
1	114918297	7119	30422
1	114934075	7120	30369
1	114949648	7121	30210
1	114965250	7122	30157
1	114980793	7123	29892
1	114996772	7124	31058
1	115012377	7125	29839
1	115027764	7126	29574
1	115043471	7127	30528
1	115059168	7128	30104
1	115074693	7129	30157
1	115090542	7130	30634
1	115106152	7131	30051
1	115121702	7132	29998
1	115137367	7133	30687
1	115152954	7134	29998
1	115168473	7135	29892
1	115184044	7136	29892
1	115199612	7137	30210
1	115215186	7138	29786
1	115230596	7139	30210
1	115246048	7140	29521
1	115261581	7141	30157
1	115277210	7142	29998
1	115292926	7143	30793
1	115308413	7144	29256
1	115324138	7145	30952
1	115339786	7146	30051
1	115355350	7147	29786
1	115371016	7148	30422
1	115386569	7149	29998