version 2
run AimdCC-1-20100909-19:31:16-5908
attr configname AimdCC
attr datetime 20100909-19:31:16
attr experiment AimdCC
attr inifile D:/Developement/Oversim2/multic/simulations/omnetpp.ini
attr iterationvars $rateIncoming=300000
attr iterationvars2 "$rateIncoming=300000, $repetition=0"
attr measurement $rateIncoming=300000
attr network oversim.underlay.simpleunderlay.SimpleUnderlayNetwork
attr processid 5908
attr rateIncoming 300000
attr repetition 0
attr replication #0
attr resultdir results
attr runnumber 1
attr seedset 1

vector 1  SimpleUnderlayNetwork.globalObserver.globalStatistics  incoming_bytes  ETV
vector 2  SimpleUnderlayNetwork.globalObserver.globalStatistics  drops  ETV
vector 3  SimpleUnderlayNetwork.globalObserver.globalStatistics  delayed_acks  ETV
vector 4  SimpleUnderlayNetwork.globalObserver.globalStatistics  timetotimeouts  ETV
vector 5  SimpleUnderlayNetwork.globalObserver.globalStatistics  9rateOf1To0  ETV
vector 6  SimpleUnderlayNetwork.globalObserver.globalStatistics  max9RateOf1To0  ETV
vector 7  SimpleUnderlayNetwork.globalObserver.globalStatistics  9rateOf1To1  ETV
vector 8  SimpleUnderlayNetwork.globalObserver.globalStatistics  max9RateOf1To1  ETV
vector 9  SimpleUnderlayNetwork.globalObserver.globalStatistics  9rateOf1To2  ETV
vector 10  SimpleUnderlayNetwork.globalObserver.globalStatistics  max9RateOf1To2  ETV
vector 11  SimpleUnderlayNetwork.globalObserver.globalStatistics  9rateOf1To3  ETV
vector 12  SimpleUnderlayNetwork.globalObserver.globalStatistics  max9RateOf1To3  ETV
vector 13  SimpleUnderlayNetwork.globalObserver.globalStatistics  9rateOf1To4  ETV
vector 14  SimpleUnderlayNetwork.globalObserver.globalStatistics  max9RateOf1To4  ETV
vector 15  SimpleUnderlayNetwork.globalObserver.globalStatistics  9rateOf1To5  ETV
vector 16  SimpleUnderlayNetwork.globalObserver.globalStatistics  max9RateOf1To5  ETV
vector 17  SimpleUnderlayNetwork.globalObserver.globalStatistics  9rateOf1To6  ETV
vector 18  SimpleUnderlayNetwork.globalObserver.globalStatistics  max9RateOf1To6  ETV
vector 19  SimpleUnderlayNetwork.globalObserver.globalStatistics  9rateOf1To7  ETV
vector 20  SimpleUnderlayNetwork.globalObserver.globalStatistics  max9RateOf1To7  ETV
vector 21  SimpleUnderlayNetwork.globalObserver.globalStatistics  9rateOf1To8  ETV
vector 22  SimpleUnderlayNetwork.globalObserver.globalStatistics  max9RateOf1To8  ETV
vector 23  SimpleUnderlayNetwork.globalObserver.globalStatistics  9rateOf1To9  ETV
vector 24  SimpleUnderlayNetwork.globalObserver.globalStatistics  max9RateOf1To9  ETV
vector 25  SimpleUnderlayNetwork.globalObserver.globalStatistics  1rate  ETV
vector 26  SimpleUnderlayNetwork.globalObserver.globalStatistics  max2Rate  ETV
vector 27  SimpleUnderlayNetwork.globalObserver.globalStatistics  "GlobalNodeList: Number of nodes"  ETV
vector 28  SimpleUnderlayNetwork.globalObserver.globalStatistics  "GlobalNodeList: Number of bootstrapped malicious nodes"  ETV
1	121503280	6017	39909
1	121524196	6018	40439
1	121545155	6019	40651
1	121566075	6020	40810
1	121586673	6021	39644
1	121607199	6022	39962
1	121628056	6023	39962
1	121648996	6024	41022
1	121669170	6025	38690
1	121690103	6026	40333
1	121710545	6027	39856
1	121731099	6028	39432
1	121751936	6029	40121
1	121772715	6030	40280
1	121792847	6031	39167
1	121813684	6032	40969
1	121834332	6033	39644
1	121854396	6034	39114
1	121875534	6035	40439
1	121896283	6036	40174
1	121916939	6037	40545
1	121937494	6038	39220
1	121958231	6039	40121
1	121978997	6040	40174
1	121999890	6041	40598
1	122020293	6042	39167
1	122041232	6043	40545
1	122062144	6044	40333
1	122082570	6045	40068
1	122103177	6046	39591
1	122123891	6047	40545
1	122144617	6048	39485
1	122165348	6049	40227
1	122186319	6050	40545
1	122206811	6051	39856
1	122227452	6052	40015
1	122248131	6053	40386
1	122268694	6054	39485
1	122289760	6055	40651
1	122310284	6056	40068
1	122331456	6057	40969
1	122352350	6058	40386
1	122373371	6059	41181
1	122394015	6060	39485
1	122414881	6061	40333
1	122435720	6062	40386
1	122456748	6063	40121
1	122477833	6064	41711
1	122498363	6065	39273
1	122519461	6066	41128
1	122540661	6067	40916
1	122561715	6068	40757
1	122582671	6069	41075
1	122603520	6070	39909
1	122624532	6071	40333
1	122645889	6072	41605
1	122667136	6073	41499
1	122688224	6074	40439
1	122709003	6075	39750
1	122730033	6076	41552
1	122751258	6077	40969
1	122772207	6078	40704
1	122793517	6079	41234
1	122814529	6080	41181
1	122835399	6081	40333
1	122856423	6082	39750
1	122877456	6083	41128
1	122898150	6084	39326
1	122919525	6085	42294
1	122940501	6086	40280
1	122961753	6087	41499
1	122982824	6088	40757
1	123003975	6089	40757
1	123025206	6090	41128
1	123046013	6091	40068
1	123067210	6092	41075
1	123088313	6093	40969
1	123109462	6094	41128
1	123130478	6095	40439
1	123151697	6096	41446
1	123172801	6097	40439
1	123193575	6098	40545
1	123214834	6099	40810
1	123236226	6100	41658
1	123257344	6101	40598
1	123278337	6102	41181
1	123299416	6103	40386
1	123320520	6104	40757
1	123342028	6105	41817
1	123363202	6106	40969
1	123384416	6107	40704
1	123405460	6108	40439
1	123426645	6109	41870
1	123447887	6110	41287
1	123469077	6111	40810
1	123490073	6112	40969
1	123511158	6113	40492
1	123532314	6114	40757
1	123553846	6115	41499
1	123574828	6116	40969
1	123596084	6117	41393
1	123617140	6118	40280
1	123638070	6119	40227
1	123659389	6120	42029
1	123680832	6121	41128
1	123702325	6122	41764
1	123723544	6123	40492
1	123745054	6124	42029
1	123766026	6125	41234
1	123787184	6126	40439
1	123808437	6127	41340
1	123829825	6128	41340
1	123851066	6129	41287
1	123872227	6130	41340
1	123893861	6131	41499
1	123915270	6132	41605
1	123936467	6133	40598
1	123958129	6134	41711
1	123979406	6135	41499
1	124001070	6136	41711
1	124022596	6137	41340
1	124044312	6138	43142
1	124065272	6139	39591
1	124086711	6140	41658
1	124108336	6141	42347
1	124129842	6142	41234
1	124151311	6143	41923
1	124172337	6144	39856
1	124193662	6145	41605
1	124215065	6146	41976
1	124236253	6147	40598
1	124257816	6148	41817
1	124279119	6149	41287
1	124300733	6150	42453
1	124322141	6151	41234
1	124343451	6152	41234
1	124364955	6153	40969
1	124386426	6154	42241
1	124407776	6155	41022
1	124429233	6156	41605
1	124450715	6157	41711
1	124471795	6158	40492
1	124493180	6159	41764
1	124514652	6160	41552
1	124535697	6161	40704
1	124557434	6162	41764
1	124578582	6163	41075
1	124599610	6164	40863
1	124621214	6165	41976
1	124642547	6166	41075
1	124664050	6167	41446
1	124685316	6168	41287
1	124706966	6169	42135
1	124728618	6170	41658
1	124749677	6171	40969
1	124770889	6172	41075
1	124792197	6173	41393
1	124813571	6174	41393
1	124834775	6175	40810
1	124856241	6176	41552
1	124877454	6177	41393
1	124899049	6178	41340
1	124920508	6179	41128
1	124942017	6180	42241
1	124963584	6181	41499
1	124984967	6182	41605
1	125006810	6183	42347
1	125028033	6184	40121
1	125049570	6185	43195
1	125071091	6186	40810
1	125092696	6187	42241
1	125113794	6188	40280
1	125135255	6189	41870
1	125156403	6190	40916
1	125177478	6191	40704
1	125199025	6192	41923
1	125220055	6193	40386
1	125241270	6194	41075
1	125262386	6195	40757
1	125283714	6196	41234
1	125304751	6197	40439
1	125325899	6198	41711
1	125347146	6199	40863
1	125368288	6200	40439
1	125389393	6201	41499
1	125410651	6202	40704
1	125432112	6203	42188
1	125453083	6204	40280
1	125474219	6205	40916
1	125495493	6206	41287
1	125516321	6207	39697
1	125537392	6208	40492
1	125558535	6209	41605
1	125579848	6210	41764
1	125601119	6211	41075
1	125622232	6212	40280
1	125643649	6213	41870
1	125664591	6214	40333
1	125685805	6215	41446
1	125706959	6216	40969
1	125728393	6217	41340
1	125749034	6218	39485
1	125770366	6219	41605
1	125791868	6220	41340
1	125812985	6221	40863
1	125833989	6222	40492
1	125855271	6223	41605
1	125876826	6224	41817
1	125897589	6225	40227
1	125919014	6226	41605
1	125940125	6227	40439
1	125961294	6228	41075
1	125982534	6229	41658
1	126003711	6230	40227
1	126024759	6231	41552
1	126045963	6232	40333
1	126067198	6233	41552
1	126088520	6234	40810
1	126109814	6235	41764
1	126131258	6236	41128
1	126152552	6237	41340
1	126173649	6238	40439
1	126194891	6239	40916
1	126216471	6240	42135
1	126237554	6241	40863
1	126258803	6242	41128
1	126279845	6243	40068
1	126300988	6244	41870
1	126322145	6245	41075
1	126343397	6246	40651
1	126364655	6247	41764
1	126385723	6248	40704
1	126407168	6249	40757
1	126428458	6250	41605
1	126449673	6251	41181
1	126471018	6252	41128
1	126492237	6253	40704
1	126513298	6254	41234
1	126534527	6255	41075
1	126555741	6256	40863
1	126576974	6257	41552
1	126598175	6258	41393
1	126619456	6259	40969
1	126640414	6260	40174
1	126661692	6261	41340
1	126683159	6262	41340
1	126704518	6263	41605
1	126725786	6264	41022
1	126747455	6265	42506
1	126768915	6266	40863
1	126790300	6267	41234
1	126811692	6268	41923
1	126832687	6269	40439
1	126853938	6270	41234
1	126875048	6271	40757
1	126896219	6272	40757
1	126917343	6273	41128
1	126938624	6274	41499
1	126959985	6275	41234
1	126981022	6276	40704
1	127002071	6277	40704
1	127023325	6278	41075
1	127044571	6279	41499
1	127065858	6280	40757
1	127086957	6281	40704
1	127108306	6282	42135
1	127129643	6283	40280
1	127150984	6284	41605
1	127171946	6285	40227
1	127193162	6286	41446
1	127214251	6287	40439
1	127235293	6288	40704
1	127256218	6289	41181
1	127277458	6290	41075
1	127298562	6291	40439
1	127319963	6292	41446
1	127341339	6293	41552
1	127362491	6294	41181
1	127383739	6295	40916
1	127404627	6296	40174
1	127426094	6297	41552
1	127447237	6298	40863
1	127468693	6299	42082
1	127489752	6300	40704
1	127510688	6301	40333
1	127532071	6302	40651
1	127553337	6303	41605
1	127574660	6304	41711
1	127596050	6305	40810
1	127617723	6306	41870
1	127639084	6307	41658
1	127660531	6308	41022
1	127681992	6309	42082
1	127703419	6310	41552
1	127724507	6311	40333
1	127746090	6312	42559
1	127767481	6313	41340
1	127788912	6314	41499
1	127810189	6315	40863
1	127831434	6316	41075
1	127852784	6317	41499
1	127874065	6318	41022
1	127895349	6319	40386
1	127917076	6320	43354
1	127937935	6321	39803
1	127959011	6322	41181
1	127979994	6323	40174
1	128000873	6324	40280
1	128021791	6325	40810
1	128042773	6326	40757
1	128063401	6327	39909
1	128084337	6328	40333
1	128105519	6329	41128
1	128126235	6330	39697
1	128147322	6331	41340
1	128168008	6332	39697
1	128188996	6333	40227
1	128209747	6334	40916
1	128230766	6335	40280
1	128251413	6336	40174
1	128272179	6337	39909
1	128293084	6338	40863
1	128313936	6339	39962
1	128334916	6340	40704
1	128355607	6341	40280
1	128376600	6342	41022
1	128397139	6343	39114
1	128417997	6344	40651
1	128438699	6345	39909
1	128459391	6346	39697
1	128480153	6347	40439
1	128500790	6348	40333
1	128521602	6349	39538
1	128542731	6350	42082
1	128563160	6351	39167
1	128584414	6352	40598
1	128605097	6353	40439
1	128625934	6354	40280
1	128646809	6355	40227
1	128667820	6356	40969
1	128688757	6357	41075
1	128709683	6358	39591
1	128730494	6359	40651
1	128751213	6360	39644
1	128772457	6361	41234
1	128793330	6362	40227
1	128814110	6363	40121
1	128835091	6364	41022
1	128855854	6365	40068
1	128876753	6366	40598
1	128897791	6367	40757
1	128918594	6368	40121
1	128939731	6369	41711
1	128960649	6370	39803
1	128981782	6371	40863
1	129002353	6372	39379
1	129023175	6373	40916
1	129043953	6374	40227
1	129065014	6375	40863
1	129086105	6376	40439
1	129106903	6377	39856
1	129127939	6378	41605
1	129149013	6379	40810
1	129170154	6380	40545
1	129191320	6381	40704
1	129212464	6382	41075
1	129233437	6383	41128
1	129254679	6384	40333
1	129275656	6385	40492
1	129296809	6386	41923
1	129317869	6387	40545
1	129339198	6388	41499
1	129360064	6389	39644
1	129381048	6390	40969
1	129402200	6391	40704
1	129422925	6392	40227
1	129443782	6393	40545
1	129464971	6394	40810
1	129486379	6395	42135
1	129507496	6396	40333
1	129528820	6397	41287
1	129550048	6398	41075
1	129571064	6399	40545
1	129591967	6400	40598
1	129613396	6401	41552
1	129634530	6402	41446
1	129655714	6403	40810
1	129676705	6404	40174
1	129698252	6405	41340
1	129719355	6406	41711
1	129740453	6407	40598
1	129761807	6408	40598
1	129782912	6409	41499
1	129804114	6410	40969
1	129825451	6411	41711
1	129846791	6412	41393
1	129867718	6413	40068
1	129889037	6414	41499
1	129910540	6415	41605
1	129931640	6416	40810
1	129952948	6417	40651
1	129974392	6418	42082
1	129995613	6419	41128
1	130016937	6420	41022
1	130038223	6421	41128
1	130059267	6422	40757
1	130080686	6423	41075
1	130102046	6424	42029
1	130123197	6425	40492
1	130144443	6426	41393
1	130165939	6427	42294
1	130187359	6428	40916
1	130208652	6429	40757
1	130230037	6430	41711
1	130251358	6431	41552
1	130272609	6432	41181
1	130293774	6433	40227
1	130315040	6434	41605
1	130336289	6435	40863
1	130357632	6436	41499
1	130379114	6437	41764
1	130400478	6438	41552
1	130421909	6439	41340
1	130443225	6440	41340
1	130465067	6441	42241
1	130486568	6442	41552
1	130507936	6443	40916
1	130529618	6444	42241
1	130550971	6445	42188
1	130572294	6446	40704
1	130593904	6447	42188
1	130615225	6448	40333
1	130636801	6449	41817
1	130658174	6450	42029
1	130679409	6451	41234
1	130700944	6452	41923
1	130722138	6453	40757
1	130743494	6454	41287
1	130764944	6455	41446
1	130786440	6456	41870
1	130807571	6457	40598
1	130829049	6458	41287
1	130850239	6459	41181
1	130871604	6460	41499
1	130892890	6461	41340
1	130914397	6462	41976
1	130936048	6463	41711
1	130957309	6464	41128
1	130978747	6465	41075
1	130999925	6466	41393
1	131021026	6467	40757
1	131042276	6468	41075
1	131063450	6469	40916
1	131084902	6470	41764
1	131106192	6471	41181
1	131127243	6472	40492
1	131149017	6473	42082
1	131170075	6474	41499
1	131191315	6475	40704
1	131212633	6476	41181
1	131233876	6477	40492
1	131255292	6478	42347
1	131276458	6479	40704
1	131297618	6480	40863
1	131318891	6481	41022
1	131340064	6482	41075
1	131361153	6483	40757
1	131382665	6484	41393
1	131404121	6485	41552
1	131425393	6486	41711
1	131446817	6487	40916
1	131468472	6488	42559
1	131489912	6489	41181
1	131511379	6490	41711
1	131533110	6491	41976
1	131554727	6492	41764
1	131575731	6493	40757
1	131596988	6494	41234
1	131618460	6495	41499
1	131639718	6496	41181
1	131661531	6497	42294
1	131682890	6498	41605
1	131704203	6499	41234
1	131725557	6500	41658
1	131747003	6501	40916
1	131768559	6502	42029
1	131789730	6503	40598
1	131811072	6504	41499
1	131832758	6505	41976
1	131853952	6506	41181
1	131875421	6507	41128
1	131896763	6508	41976
1	131918191	6509	41075
1	131939506	6510	40863
1	131961007	6511	42082
1	131982506	6512	42188
1	132003998	6513	41287
1	132025747	6514	41817
1	132047527	6515	42294
1	132069516	6516	43142
1	132090901	6517	40969
1	132112647	6518	41976
1	132134434	6519	42347
1	132156108	6520	41923
1	132178203	6521	42400
1	132200151	6522	42347
1	132221625	6523	41976
1	132243521	6524	42241
1	132265081	6525	41287
1	132286557	6526	42347
1	132308393	6527	41923
1	132330008	6528	42506
1	132351731	6529	41552
1	132373605	6530	42612
1	132395482	6531	41976
1	132417194	6532	42294
1	132438961	6533	42771
1	132460496	6534	40916
1	132482027	6535	41658
1	132503311	6536	41499
1	132524910	6537	42029
1	132546312	6538	40757
1	132567643	6539	41764
1	132589232	6540	42029
1	132610746	6541	41870
1	132631953	6542	40068
1	132653627	6543	42771
1	132675277	6544	41605
1	132697020	6545	42188
1	132718506	6546	41605
1	132740131	6547	42188
1	132761610	6548	41287
1	132783231	6549	42082
1	132804772	6550	41817
1	132826280	6551	41287
1	132848333	6552	42559
1	132870132	6553	41923
1	132891705	6554	42347
1	132913502	6555	41870
1	132935123	6556	42188
1	132957150	6557	43089
1	132978823	6558	41711
1	133000528	6559	41817
1	133022348	6560	42400
1	133043801	6561	41446
1	133065254	6562	41658
1	133087152	6563	42294
1	133108430	6564	41552
1	133129992	6565	41658
1	133151518	6566	41128
1	133172836	6567	41552
1	133194651	6568	41923
1	133216247	6569	42771
1	133237676	6570	41234
1	133259220	6571	41340
1	133280706	6572	41817
1	133302194	6573	41499
1	133323629	6574	41817
1	133345213	6575	41658
1	133366674	6576	41658
1	133388108	6577	41234
1	133409480	6578	41499
1	133430931	6579	41340
1	133452590	6580	41976
1	133473422	6581	40068
1	133495133	6582	42082
1	133516781	6583	42188
1	133538330	6584	41764
1	133559952	6585	42347
1	133581097	6586	40598
1	133602650	6587	41446
1	133624317	6588	42400
1	133645745	6589	41128
1	133667015	6590	41340
1	133688183	6591	41022
1	133709442	6592	41075
1	133730765	6593	41393
1	133752094	6594	41340
1	133773251	6595	40545
1	133794679	6596	41181
1	133816116	6597	42771
1	133837780	6598	41393
1	133858946	6599	40227
1	133880368	6600	41870
1	133901904	6601	41711
1	133923147	6602	40651
1	133944713	6603	42824
1	133966241	6604	41605
1	133987626	6605	41181
1	134009008	6606	40916
1	134030412	6607	42029
1	134051838	6608	41605
1	134073071	6609	40757
1	134094602	6610	41181
1	134116344	6611	42400
1	134137956	6612	41499
1	134159403	6613	41764
1	134181122	6614	42718
1	134202613	6615	40863
1	134224255	6616	42347
1	134245943	6617	41605
1	134267537	6618	42347
1	134289361	6619	42188
1	134310958	6620	41817
1	134332509	6621	41923
1	134354210	6622	41499
1	134375982	6623	42771
1	134397520	6624	41552
1	134419150	6625	41234
1	134440773	6626	42241
1	134462647	6627	42294
1	134484170	6628	41499
1	134506113	6629	43566
1	134527683	6630	41287
1	134549737	6631	42612
1	134571302	6632	41340
1	134592797	6633	41923
1	134614395	6634	41658
1	134636049	6635	41976
1	134657606	6636	41976
1	134678937	6637	41234
1	134700788	6638	42188
1	134722410	6639	41976
1	134743990	6640	41711
1	134765575	6641	42135
1	134787062	6642	41234
1	134808989	6643	42506
1	134830781	6644	42347
1	134852330	6645	41817
1	134874213	6646	42824
1	134896119	6647	41181
1	134917806	6648	42347
1	134939395	6649	42029
1	134960947	6650	41817
1	134982933	6651	42612
1	135004474	6652	41393
1	135025956	6653	41711
1	135047601	6654	41658
1	135069300	6655	42506
1	135090780	6656	41075
1	135112329	6657	41976
1	135133706	6658	41128
1	135155398	6659	42135
1	135176983	6660	42241
1	135198281	6661	41075
1	135219554	6662	40280
1	135240859	6663	41764
1	135262540	6664	42241
1	135283948	6665	41340
1	135305268	6666	41128
1	135326717	6667	42082
1	135348157	6668	40810
1	135369720	6669	42241
1	135391467	6670	42241
1	135412930	6671	40757
1	135434427	6672	42188
1	135455583	6673	40810
1	135477301	6674	41870
1	135498816	6675	42082
1	135520113	6676	40916
1	135541698	6677	41923
1	135563302	6678	42029
1	135585007	6679	42135
1	135606715	6680	41711
1	135628184	6681	41605
1	135649357	6682	41075
1	135670879	6683	41446
1	135692647	6684	42506
1	135714439	6685	42453
1	135735991	6686	41499
1	135757652	6687	42082
1	135779093	6688	41234
1	135800589	6689	41446
1	135822112	6690	41552
1	135843811	6691	41923
1	135865259	6692	41658
1	135886786	6693	42082
1	135908352	6694	41287
1	135930034	6695	42188
1	135951692	6696	41870
1	135973222	6697	41128
1	135994408	6698	41446
1	136015836	6699	41499
1	136037449	6700	41976
1	136059277	6701	42453
1	136080477	6702	41022
1	136101883	6703	41022
1	136123440	6704	42241
1	136145068	6705	41711
1	136166768	6706	42082
1	136188225	6707	41393
1	136209775	6708	41764
1	136231181	6709	41499
1	136252660	6710	41552
1	136274207	6711	41658
1	136295719	6712	42188
1	136317243	6713	41075
1	136339044	6714	41711
1	136361062	6715	42983
1	136382570	6716	41393
1	136404128	6717	42294
1	136425511	6718	41128
1	136447016	6719	42294
1	136468494	6720	41340
1	136490195	6721	41446
1	136511706	6722	41711
1	136533492	6723	42718
1	136555107	6724	41499
1	136576617	6725	42082
1	136597896	6726	40810
1	136619406	6727	41499
1	136640853	6728	41764
1	136662378	6729	41711
1	136684015	6730	41764
1	136705611	6731	42029
1	136726983	6732	41128
1	136748472	6733	41658
1	136770028	6734	41711
1	136791677	6735	41128
1	136813342	6736	42665
1	136834843	6737	41499
1	136856697	6738	42559
1	136878288	6739	41923
1	136899884	6740	40969
1	136921932	6741	43195
1	136943545	6742	41181
1	136965185	6743	42506
1	136986717	6744	41923
1	137008212	6745	41711
1	137029787	6746	41181
1	137051393	6747	42718
1	137072913	6748	40916
1	137094487	6749	42029
1	137115905	6750	40916
1	137137546	6751	42400
1	137158987	6752	41181
1	137180523	6753	41764
1	137202027	6754	41764
1	137223399	6755	41234
1	137244960	6756	42029
1	137266211	6757	40969
1	137287533	6758	41287
1	137309311	6759	42135
1	137331048	6760	41976
1	137352318	6761	41340
1	137373773	6762	41287
1	137395391	6763	41658
1	137416824	6764	41764
1	137438290	6765	41764
1	137459612	6766	40863
1	137481112	6767	42400
1	137502530	6768	41499
1	137524382	6769	42029
1	137545807	6770	41022
1	137567179	6771	41499
1	137588792	6772	41870
1	137610369	6773	42241
1	137631811	6774	41022
1	137653495	6775	42294
1	137675316	6776	42665
1	137696434	6777	40757
1	137717759	6778	40969
1	137739059	6779	41340
1	137760699	6780	41764
1	137781962	6781	41340
1	137803170	6782	40863
1	137824440	6783	41075
1	137846025	6784	41870
1	137867399	6785	41287
1	137888707	6786	41711
1	137910441	6787	41446
1	137931966	6788	41446
1	137953540	6789	42612
1	137975262	6790	41446
1	137996893	6791	42188
1	138018576	6792	42506
1	138039991	6793	41340
1	138061495	6794	41340
1	138083371	6795	42612
1	138104966	6796	41711
1	138126258	6797	41393
1	138147592	6798	40704
1	138169309	6799	42347
1	138190842	6800	41764
1	138212337	6801	41181
1	138233955	6802	42029
1	138255402	6803	42294
1	138276946	6804	40969
1	138298676	6805	42506
1	138320417	6806	41976
1	138341918	6807	41181
1	138363501	6808	42029
1	138385099	6809	41870
1	138406664	6810	41764
1	138428157	6811	41287
1	138449487	6812	41393
1	138470952	6813	41658
1	138492738	6814	42559
1	138513958	6815	40227
1	138535350	6816	41552
1	138556762	6817	42082
1	138578300	6818	41499
1	138600106	6819	42400
1	138621563	6820	41128
1	138642868	6821	41658
1	138664531	6822	41393
1	138686159	6823	42135
1	138707746	6824	41817
1	138729443	6825	42506
1	138750962	6826	41817
1	138772668	6827	41181
1	138794420	6828	42082
1	138816022	6829	41976
1	138837312	6830	41552
1	138858969	6831	41393
1	138880689	6832	42930
1	138902347	6833	41499
1	138924020	6834	41552
1	138945747	6835	41923
1	138967632	6836	42718
1	138989213	6837	41446
1	139010691	6838	41605
1	139032556	6839	42771
1	139054462	6840	42347
1	139076550	6841	42930
1	139098275	6842	41711
1	139119817	6843	41658
1	139141799	6844	43513
1	139163400	6845	41340
1	139185278	6846	42294
1	139206924	6847	41181
1	139228598	6848	42506
1	139250264	6849	41870
1	139271800	6850	41552
1	139293583	6851	42559
1	139315279	6852	41817
1	139336886	6853	42294
1	139358037	6854	40810
1	139379302	6855	40651
1	139400738	6856	41658
1	139422213	6857	41976
1	139443828	6858	40704
1	139465415	6859	42771
1	139487120	6860	42029
1	139509076	6861	42400
1	139530522	6862	41764
1	139552082	6863	41181
1	139574123	6864	42824
1	139595675	6865	42082
1	139617155	6866	41605
1	139638923	6867	42294
1	139660615	6868	41711
1	139682378	6869	42506
1	139704015	6870	41764
1	139725540	6871	41764
1	139747136	6872	41870
1	139768464	6873	41287
1	139790087	6874	41817
1	139811486	6875	41075
1	139833296	6876	42241
1	139854838	6877	41393
1	139876702	6878	42294
1	139898104	6879	41340
1	139919561	6880	42453
1	139941261	6881	41287
1	139962920	6882	42135
1	139984339	6883	41499
1	140005857	6884	41446
1	140027522	6885	42294
1	140049215	6886	42188
1	140070591	6887	41181
1	140092450	6888	42718
1	140114074	6889	41764
1	140135640	6890	41128
1	140157309	6891	42082
1	140178798	6892	41817
1	140200003	6893	40704
1	140221616	6894	42453
1	140242845	6895	40916
1	140263988	6896	40757
1	140285270	6897	41499
1	140306723	6898	40969
1	140328020	6899	41128
1	140349518	6900	41870
1	140370833	6901	41287
1	140392261	6902	41764
1	140413707	6903	41287
1	140435282	6904	42135
1	140456847	6905	41817
1	140478173	6906	41128
1	140499698	6907	41552
1	140521303	6908	42453
1	140542695	6909	40810
1	140564541	6910	42665
1	140585959	6911	41552
1	140607553	6912	41128
1	140629445	6913	42612
1	140651051	6914	42135
1	140672512	6915	41287
1	140694217	6916	42718
1	140715843	6917	41128
1	140737269	6918	41446
1	140758832	6919	41870
1	140779991	6920	41128
1	140800878	6921	39697
1	140821803	6922	40598
1	140842796	6923	40386
1	140863772	6924	40969
1	140884664	6925	40386
1	140905817	6926	40969
1	140926759	6927	40598
1	140947425	6928	39485
1	140968362	6929	40651
1	140989421	6930	41658
1	141010291	6931	39644
1	141031405	6932	41234
1	141052500	6933	41075
1	141073489	6934	40386
1	141094551	6935	41075
1	141115589	6936	40333
1	141136489	6937	40757
1	141157464	6938	40227
1	141178743	6939	41181
1	141199473	6940	39803
1	141220570	6941	41022
1	141241363	6942	40704
1	141262609	6943	40757
1	141284025	6944	41605
1	141305015	6945	40704
1	141326029	6946	40757
1	141346890	6947	40121
1	141368021	6948	40757
1	141389263	6949	41181
1	141410389	6950	41552
1	141430993	6951	39379
1	141452125	6952	41234
1	141473024	6953	40174
1	141494080	6954	40863
1	141514630	6955	40068
1	141535471	6956	39909
1	141556115	6957	39485
1	141577119	6958	40651
1	141597931	6959	40598
1	141619364	6960	42029
1	141640333	6961	39962
1	141661377	6962	40810
1	141682465	6963	40810
1	141703551	6964	41181
1	141724190	6965	39644
1	141745239	6966	41393
1	141766269	6967	39909
1	141787536	6968	41234
1	141808410	6969	40704
1	141829483	6970	40863
1	141850857	6971	41234
1	141871826	6972	40651
1	141892871	6973	40651
1	141913768	6974	40810
1	141934681	6975	40121
1	141955722	6976	40651
1	141976948	6977	40969
1	141997955	6978	40916
1	142018941	6979	40757
1	142040040	6980	40969
1	142061060	6981	40651
1	142081982	6982	40386
1	142103050	6983	40969
1	142124112	6984	40863
1	142145078	6985	40545
1	142166267	6986	40969
1	142187265	6987	40757
1	142208294	6988	40386
1	142229495	6989	41499
1	142250641	6990	41075
1	142271927	6991	41075
1	142293162	6992	41128
1	142313942	6993	39803
1	142335228	6994	41181
1	142356465	6995	41499
1	142377455	6996	40439
1	142398224	6997	40068
1	142419340	6998	41234
1	142440583	6999	41446
1	142461675	7000	40227
1	142483192	7001	42029
1	142504616	7002	41446
1	142526200	7003	41764
1	142547330	7004	40651
1	142569001	7005	41976
1	142590092	7006	40916
1	142611355	7007	40969
1	142632393	7008	41287
1	142653857	7009	41658
1	142674686	7010	39750
1	142696008	7011	41499
1	142716898	7012	40015
1	142738110	7013	41287
1	142759401	7014	40863
1	142780814	7015	42135
1	142801798	7016	40174
1	142823117	7017	41817
1	142844321	7018	40439
1	142865510	7019	41287
1	142886867	7020	41075
1	142908143	7021	41658
1	142929331	7022	40863
1	142950503	7023	40651
1	142971436	7024	40863
1	142991807	7025	39273
1	143012551	7026	40439
1	143033488	7027	39909
1	143054647	7028	41340
1	143075736	7029	40439
1	143096427	7030	40439
1	143117359	7031	40015
1	143138130	7032	40704
1	143158959	7033	39909
1	143180050	7034	41128
1	143201330	7035	41340
1	143222023	7036	39962
1	143242826	7037	39962
1	143263528	7038	40068
1	143284260	7039	40439
1	143305447	7040	40439
1	143326467	7041	41234
1	143347007	7042	39220
1	143368072	7043	41022
1	143389110	7044	40651
1	143410243	7045	40810
1	143430901	7046	39803
1	143451712	7047	40916
1	143472742	7048	40227
1	143493551	7049	41340
1	143514409	7050	39750
1	143535569	7051	41499
1	143556456	7052	40227
1	143577605	7053	40863
1	143598646	7054	40704
1	143619570	7055	40492
1	143640890	7056	41552
1	143662004	7057	40545
1	143683069	7058	40386
1	143704188	7059	41234
1	143725027	7060	40333
1	143746075	7061	40280
1	143766987	7062	40492
1	143788215	7063	41181
1	143809209	7064	40863
1	143830278	7065	40969
1	143851302	7066	40916
1	143872296	7067	40121
1	143893418	7068	40969
1	143914547	7069	40810
1	143935727	7070	41234
1	143956974	7071	40969
1	143978080	7072	40969
1	143999249	7073	40598
1	144020386	7074	41234
1	144041358	7075	40651
1	144062565	7076	41022
1	144083637	7077	40916
1	144104509	7078	40333
1	144125679	7079	41181
1	144147044	7080	41552
1	144168187	7081	40545
1	144189261	7082	40651
1	144210697	7083	41711
1	144232027	7084	41075
1	144253331	7085	41340
1	144274933	7086	41764
1	144295829	7087	40598
1	144317348	7088	41870
1	144338615	7089	41234
1	144359979	7090	40439
1	144381537	7091	42983
1	144402734	7092	40386
1	144424477	7093	42188
1	144445706	7094	41499
1	144467528	7095	42241
1	144489044	7096	40810
1	144510537	7097	41923
1	144531825	7098	41128
1	144552922	7099	40545
1	144574429	7100	42082
1	144595853	7101	41181
1	144617088	7102	40651
1	144638430	7103	41976
1	144659769	7104	41022
1	144681046	7105	40757
1	144702372	7106	41658
1	144723291	7107	40333
1	144744322	7108	40545
1	144765577	7109	41817
1	144787103	7110	41764
1	144808666	7111	41075
1	144830009	7112	41393
1	144851416	7113	41393
1	144872952	7114	42135
1	144894414	7115	41658
1	144915669	7116	40651
1	144937316	7117	42506
1	144958722	7118	41075
1	144980003	7119	41234
1	145001346	7120	40810
1	145022680	7121	41870
1	145044299	7122	42347
1	145065840	7123	41181
1	145087204	7124	41287
1	145108807	7125	42135
1	145130316	7126	41817
1	145151762	7127	40863
1	145172868	7128	40386
1	145194213	7129	41499
1	145215750	7130	42188
1	145236872	7131	40863
1	145258315	7132	41605
1	145279567	7133	41393
1	145301005	7134	40810
1	145322397	7135	41658
1	145344079	7136	41817
1	145365197	7137	40757
1	145387092	7138	42453
1	145408528	7139	41552
1	145430085	7140	41393
1	145451429	7141	41340