version 2
run BasicCC-0-20100909-21:12:20-3056
attr configname BasicCC
attr datetime 20100909-21:12:20
attr experiment BasicCC
attr inifile D:/Developement/Oversim2/multic/simulations/omnetpp.ini
attr iterationvars $rateIncoming=400000
attr iterationvars2 "$rateIncoming=400000, $repetition=0"
attr measurement $rateIncoming=400000
attr network oversim.underlay.simpleunderlay.SimpleUnderlayNetwork
attr processid 3056
attr rateIncoming 400000
attr repetition 0
attr replication #0
attr resultdir results
attr runnumber 0
attr seedset 0

vector 1  SimpleUnderlayNetwork.globalObserver.globalStatistics  incoming_bytes  ETV
vector 2  SimpleUnderlayNetwork.globalObserver.globalStatistics  drops  ETV
vector 3  SimpleUnderlayNetwork.globalObserver.globalStatistics  delayed_acks  ETV
vector 4  SimpleUnderlayNetwork.globalObserver.globalStatistics  "GlobalNodeList: Number of nodes"  ETV
vector 5  SimpleUnderlayNetwork.globalObserver.globalStatistics  "GlobalNodeList: Number of bootstrapped malicious nodes"  ETV
1	55749344	517	4770
1	55860824	518	3975
1	55972443	519	3975
1	56083794	520	4558
1	56195430	521	4929
1	56306970	522	3074
1	56418299	523	4187
1	56529897	524	3763
1	56641432	525	4452
1	56752807	526	3763
1	56864363	527	3869
1	56975834	528	4611
1	57087376	529	4717
1	57198856	530	4293
1	57310154	531	4187
1	57421844	532	4028
1	57533392	533	4028
1	57644828	534	3498
1	57756288	535	3975
1	57867687	536	3763
1	57979210	537	3339
1	58090815	538	4452
1	58202214	539	3816
1	58313693	540	3551
1	58425321	541	3710
1	58536731	542	3869
1	58648302	543	4611
1	58759734	544	4293
1	58871154	545	4346
1	58982847	546	4505
1	59094158	547	4717
1	59205577	548	4293
1	59317214	549	4452
1	59428840	550	4399
1	59540214	551	4240
1	59651739	552	3816
1	59763058	553	4505
1	59874711	554	3657
1	59986240	555	3975
1	60097658	556	4346
1	60209020	557	4028
1	60320681	558	4399
1	60432147	559	3551
1	60543619	560	4505
1	60655269	561	3180
1	60766691	562	4664
1	60878133	563	4346
1	60989678	564	3816
1	61101070	565	4028
1	61212624	566	3763
1	61324111	567	4028
1	61435673	568	3604
1	61547015	569	4028
1	61658463	570	3869
1	61770020	571	5671
1	61881515	572	3392
1	61993011	573	5194
1	62104609	574	3392
1	62216192	575	4717
1	62327563	576	4293
1	62439146	577	4611
1	62550712	578	4717
1	62662160	579	3180
1	62773439	580	4505
1	62885075	581	3710
1	62996582	582	4505
1	63108137	583	4293
1	63219455	584	3498
1	63331020	585	4399
1	63442577	586	4293
1	63553958	587	4028
1	63665436	588	4558
1	63777111	589	3445
1	63888435	590	3975
1	64000024	591	3869
1	64111355	592	3816
1	64222917	593	3816
1	64334572	594	4187
1	64446078	595	4293
1	64557384	596	4187
1	64668901	597	4505
1	64780453	598	3657
1	64891779	599	3975
1	65003490	600	3551
1	65114982	601	3975
1	65226425	602	4346
1	65337943	603	4240
1	65449399	604	4611
1	65560793	605	4134
1	65672415	606	3816
1	65783904	607	4452
1	65895421	608	4452
1	66006972	609	4664
1	66118305	610	3657
1	66229855	611	4187
1	66341498	612	4187
1	66452882	613	4081
1	66564488	614	4187
1	66675889	615	4611
1	66787391	616	4399
1	66898894	617	4134
1	67010415	618	4187
1	67121949	619	3922
1	67233346	620	3763
1	67344753	621	4028
1	67456213	622	4134
1	67567832	623	4399
1	67679344	624	3657
1	67790743	625	4134
1	67902318	626	3975
1	68013850	627	4346
1	68125382	628	3816
1	68236696	629	3392
1	68348278	630	3551
1	68459775	631	4240
1	68571234	632	4028
1	68682738	633	3922
1	68794132	634	3286
1	68905602	635	3869
1	69017138	636	4770
1	69128640	637	4293
1	69240159	638	4929
1	69351676	639	4611
1	69463113	640	4346
1	69574703	641	4187
1	69686252	642	4452
1	69797678	643	3551
1	69909178	644	4134
1	70020637	645	4505
1	70132227	646	4134
1	70243741	647	4346
1	70355148	648	3975
1	70466606	649	4611
1	70578161	650	3445
1	70689758	651	4823
1	70801302	652	3233
1	70912598	653	3975
1	71024084	654	4770
1	71135483	655	3975
1	71247241	656	4187
1	71358588	657	4558
1	71470105	658	4505
1	71581681	659	4399
1	71693028	660	4187
1	71804671	661	3763
1	71916162	662	4187
1	72027517	663	4187
1	72139041	664	3445
1	72250615	665	5671
1	72362048	666	4558
1	72473743	667	4134
1	72585074	668	4028
1	72696687	669	3498
1	72808059	670	3498
1	72919609	671	4187
1	73030971	672	3763
1	73142596	673	3922
1	73254101	674	4717
1	73365594	675	3074
1	73477013	676	3710
1	73588546	677	4611
1	73700037	678	3710
1	73811603	679	4452
1	73922958	680	3498
1	74034437	681	5194
1	74145965	682	3869
1	74257402	683	5088
1	74369073	684	4240
1	74480518	685	4982
1	74592084	686	3975
1	74703460	687	3233
1	74815014	688	4505
1	74926556	689	3922
1	75037984	690	4187
1	75149303	691	4293
1	75260924	692	4028
1	75372573	693	3763
1	75484084	694	4028
1	75595488	695	4187
1	75706954	696	3233
1	75818396	697	4558
1	75929949	698	3233
1	76041283	699	3869
1	76152838	700	3021
1	76264305	701	4293
1	76375893	702	4293
1	76487455	703	4293
1	76598934	704	3975
1	76710386	705	3816
1	76821940	706	4346
1	76933232	707	3657
1	77044875	708	4187
1	77156393	709	4770
1	77267861	710	4293
1	77379354	711	4770
1	77490885	712	4240
1	77602264	713	4240
1	77713803	714	3604
1	77825261	715	4134
1	77936804	716	4081
1	78048339	717	4823
1	78159849	718	4293
1	78271169	719	4028
1	78382896	720	4982
1	78494389	721	5300
1	78605794	722	4823
1	78717382	723	3604
1	78828913	724	5035
1	78940233	725	3604
1	79051768	726	3710
1	79163236	727	4240
1	79274778	728	3763
1	79386267	729	4399
1	79497902	730	4081
1	79609307	731	4293
1	79720832	732	3710
1	79832186	733	3657
1	79943744	734	4611
1	80055330	735	3869
1	80166780	736	4293
1	80278225	737	4240
1	80389766	738	4293
1	80501178	739	4399
1	80612813	740	3392
1	80724187	741	3869
1	80835755	742	4346
1	80947213	743	4717
1	81058678	744	3869
1	81170180	745	4558
1	81281614	746	3763
1	81393196	747	4293
1	81504706	748	4028
1	81616227	749	3445
1	81727694	750	3763
1	81839193	751	3869
1	81950698	752	4081
1	82062148	753	4664
1	82173723	754	3869
1	82285089	755	3604
1	82396574	756	4240
1	82508126	757	4081
1	82619567	758	3975
1	82731043	759	3710
1	82842643	760	3975
1	82954066	761	4505
1	83065645	762	4293
1	83177131	763	3657
1	83288508	764	4293
1	83400057	765	3975
1	83511570	766	4876
1	83623123	767	4823
1	83734629	768	3710
1	83845970	769	3816
1	83957562	770	4664
1	84069098	771	3604
1	84180478	772	4452
1	84291964	773	3975
1	84403590	774	4187
1	84514934	775	3975
1	84626434	776	4081
1	84737922	777	4664
1	84849502	778	3710
1	84960960	779	3445
1	85072460	780	4293
1	85183970	781	3657
1	85295337	782	3922
1	85406955	783	4505
1	85518426	784	3392
1	85629960	785	3975
1	85741401	786	4240
1	85852998	787	4081
1	85964434	788	4081
1	86075840	789	4770
1	86187596	790	3975
1	86298794	791	3816
1	86410582	792	4664
1	86521767	793	4293
1	86633337	794	3710
1	86744836	795	3392
1	86856485	796	3975
1	86967918	797	3975
1	87079275	798	4028
1	87190824	799	3127
1	87302286	800	3604
1	87413675	801	3710
1	87525389	802	4505
1	87636756	803	3763
1	87748265	804	5141
1	87859695	805	3498
1	87971282	806	4399
1	88082851	807	3869
1	88194133	808	4240
1	88305761	809	3869
1	88417242	810	4187
1	88528827	811	4929
1	88640210	812	3763
1	88751736	813	3975
1	88863210	814	3551
1	88974713	815	4611
1	89086334	816	4717
1	89197844	817	3445
1	89309135	818	3551
1	89420636	819	4293
1	89532174	820	4346
1	89643737	821	4134
1	89755217	822	4982
1	89866699	823	5035
1	89978234	824	3551
1	90089654	825	3339
1	90201167	826	3339
1	90312699	827	4346
1	90424258	828	4187
1	90535653	829	3233
1	90647094	830	4452
1	90758728	831	4664
1	90870226	832	4399
1	90981646	833	3763
1	91093136	834	3763
1	91204596	835	4081
1	91316081	836	3922
1	91427620	837	4717
1	91539106	838	4611
1	91650592	839	3922
1	91762134	840	3710
1	91873560	841	4134
1	91984996	842	3763
1	92096540	843	3869
1	92207974	844	3392
1	92319585	845	4876
1	92431103	846	3975
1	92542459	847	4293
1	92654109	848	4770
1	92765618	849	4611
1	92877022	850	4505
1	92988637	851	4346
1	93100020	852	3551
1	93211519	853	3498
1	93322999	854	4611
1	93434428	855	3392
1	93546016	856	4134
1	93657475	857	4452
1	93769065	858	3763
1	93880487	859	3869
1	93991886	860	3233
1	94103455	861	4081
1	94214867	862	4028
1	94326530	863	4664
1	94438014	864	4240
1	94549527	865	3604
1	94660975	866	5088
1	94772441	867	3710
1	94883986	868	4293
1	94995353	869	4240
1	95106834	870	3445
1	95218459	871	4399
1	95329945	872	4081
1	95441513	873	4293
1	95552937	874	3710
1	95664347	875	4240
1	95775967	876	3922
1	95887403	877	4823
1	95998794	878	5194
1	96110367	879	4187
1	96221981	880	4293
1	96333271	881	4240
1	96444810	882	5194
1	96556480	883	4081
1	96667778	884	2915
1	96779362	885	4028
1	96890894	886	5088
1	97002404	887	4293
1	97113861	888	4028
1	97225402	889	3816
1	97336864	890	4081
1	97448410	891	4399
1	97559817	892	4081
1	97671323	893	4293
1	97782813	894	4081
1	97894375	895	3763
1	98005706	896	4187
1	98117315	897	4611
1	98228852	898	3975
1	98340231	899	4346
1	98451849	900	4399
1	98563426	901	3710
1	98674816	902	3127
1	98786285	903	4240
1	98897824	904	4346
1	99009201	905	3180
1	99120758	906	4081
1	99232299	907	4240
1	99343789	908	3975
1	99455285	909	4929
1	99566698	910	3869
1	99678169	911	4823
1	99789795	912	4611
1	99901254	913	4823
1	100012689	914	4134
1	100124196	915	4558
1	100235624	916	3339
1	100347168	917	4028
1	100458925	918	4240
1	100570252	919	3975
1	100681666	920	4399
1	100793106	921	3551
1	100904678	922	4399
1	101016275	923	3922
1	101127619	924	4505
1	101239137	925	3286
1	101350721	926	4134
1	101462237	927	3869
1	101573538	928	3180
1	101685118	929	4081
1	101796543	930	3551
1	101908108	931	3869
1	102019627	932	4187
1	102131140	933	3551
1	102242596	934	3922
1	102354049	935	4770
1	102465623	936	4346
1	102577090	937	4664
1	102688624	938	4505
1	102800003	939	3551
1	102911430	940	3922
1	103023095	941	4611
1	103134480	942	3710
1	103245976	943	3975
1	103357540	944	4876
1	103469103	945	3551
1	103580557	946	4611
1	103692037	947	3710
1	103803537	948	5088
1	103915049	949	3710
1	104026342	950	4558
1	104137918	951	3710
1	104249564	952	4346
1	104361004	953	4081
1	104472470	954	4664
1	104584071	955	5035
1	104695503	956	4505
1	104807055	957	4134
1	104918501	958	4558
1	105030034	959	3869
1	105141439	960	4240
1	105253036	961	4346
1	105364501	962	3445
1	105476076	963	3074
1	105587487	964	3445
1	105698878	965	3392
1	105810465	966	4452
1	105921999	967	4028
1	106033350	968	3975
1	106145034	969	3763
1	106256404	970	4028
1	106368006	971	4717
1	106479306	972	3498
1	106590893	973	3763
1	106702244	974	3922
1	106813730	975	4134
1	106925297	976	3816
1	107036897	977	4823
1	107148403	978	4081
1	107259963	979	4293
1	107371292	980	3763
1	107482830	981	3657
1	107594350	982	4982
1	107705721	983	3763
1	107817316	984	4346
1	107928751	985	4399
1	108040232	986	4081
1	108151761	987	4081
1	108263272	988	4293
1	108374794	989	4028
1	108486367	990	4505
1	108597767	991	3710
1	108709275	992	3763
1	108820695	993	4187
1	108932283	994	4187
1	109043706	995	4187
1	109155292	996	4293
1	109266893	997	4240
1	109378259	998	3816
1	109489818	999	4876
2	55749344	517	733
2	55860824	518	10911
2	55972443	519	10991
2	56083794	520	10948
2	56195430	521	10974
2	56306970	522	10983
2	56418299	523	10922
2	56529897	524	11048
2	56641432	525	10859
2	56752807	526	11047
2	56864363	527	10982
2	56975834	528	10905
2	57087376	529	10973
2	57198856	530	10911
2	57310154	531	11024
2	57421844	532	10969
2	57533392	533	10930
2	57644828	534	10955
2	57756288	535	10932
2	57867687	536	10989
2	57979210	537	10946
2	58090815	538	11066
2	58202214	539	10920
2	58313693	540	10966
2	58425321	541	10995
2	58536731	542	10942
2	58648302	543	11015
2	58759734	544	10855
2	58871154	545	11079
2	58982847	546	10950
2	59094158	547	10946
2	59205577	548	10978
2	59317214	549	10928
2	59428840	550	10944
2	59540214	551	10909
2	59651739	552	11022
2	59763058	553	10923
2	59874711	554	10966
2	59986240	555	11027
2	60097658	556	10929
2	60209020	557	10996
2	60320681	558	10928
2	60432147	559	10938
2	60543619	560	10970
2	60655269	561	10987
2	60766691	562	10979
2	60878133	563	10898
2	60989678	564	11005
2	61101070	565	11024
2	61212624	566	10894
2	61324111	567	10952
2	61435673	568	11064
2	61547015	569	10965
2	61658463	570	10913
2	61770020	571	10964
2	61881515	572	10983
2	61993011	573	10946
2	62104609	574	10974
2	62216192	575	10958
2	62327563	576	10933
2	62439146	577	10956
2	62550712	578	10966
2	62662160	579	11030
2	62773439	580	10906
2	62885075	581	10995
2	62996582	582	10899
2	63108137	583	10924
2	63219455	584	11076
2	63331020	585	10898
2	63442577	586	10955
2	63553958	587	10953
2	63665436	588	11033
2	63777111	589	10900
2	63888435	590	10974
2	64000024	591	11024
2	64111355	592	10995
2	64222917	593	10946
2	64334572	594	10943
2	64446078	595	11024
2	64557384	596	10914
2	64668901	597	10955
2	64780453	598	10933
2	64891779	599	10978
2	65003490	600	10930
2	65114982	601	10993
2	65226425	602	10969
2	65337943	603	10993
2	65449399	604	10936
2	65560793	605	10877
2	65672415	606	11072
2	65783904	607	10939
2	65895421	608	10937
2	66006972	609	10972
2	66118305	610	10993
2	66229855	611	10952
2	66341498	612	11018
2	66452882	613	10879
2	66564488	614	11022
2	66675889	615	10912
2	66787391	616	10959
2	66898894	617	11011
2	67010415	618	10972
2	67121949	619	10879
2	67233346	620	10943
2	67344753	621	11038
2	67456213	622	10914
2	67567832	623	10958
2	67679344	624	10984
2	67790743	625	10954
2	67902318	626	10993
2	68013850	627	10991
2	68125382	628	10881
2	68236696	629	11050
2	68348278	630	10989
2	68459775	631	10970
2	68571234	632	10905
2	68682738	633	11004
2	68794132	634	10932
2	68905602	635	11005
2	69017138	636	10927
2	69128640	637	10947
2	69240159	638	11034
2	69351676	639	10880
2	69463113	640	11018
2	69574703	641	10972
2	69686252	642	10932
2	69797678	643	11002
2	69909178	644	10795
2	70020637	645	11085
2	70132227	646	10976
2	70243741	647	10952
2	70355148	648	10981
2	70466606	649	10928
2	70578161	650	10993
2	70689758	651	10995
2	70801302	652	10941
2	70912598	653	10930
2	71024084	654	10992
2	71135483	655	10948
2	71247241	656	10963
2	71358588	657	10918
2	71470105	658	10950
2	71581681	659	11028
2	71693028	660	10888
2	71804671	661	10998
2	71916162	662	10960
2	72027517	663	10970
2	72139041	664	10958
2	72250615	665	10976
2	72362048	666	10907
2	72473743	667	10985
2	72585074	668	10985
2	72696687	669	10982
2	72808059	670	10981
2	72919609	671	10904
2	73030971	672	11023
2	73142596	673	10917
2	73254101	674	11036
2	73365594	675	10901
2	73477013	676	11039
2	73588546	677	10930
2	73700037	678	10951
2	73811603	679	10982
2	73922958	680	10979
2	74034437	681	10939
2	74145965	682	10918
2	74257402	683	10993
2	74369073	684	10939
2	74480518	685	10986
2	74592084	686	10996
2	74703460	687	10916
2	74815014	688	11006
2	74926556	689	10942
2	75037984	690	10930
2	75149303	691	10950
2	75260924	692	10974
2	75372573	693	10994
2	75484084	694	11007
2	75595488	695	10897
2	75706954	696	11015
2	75818396	697	10905
2	75929949	698	10964
2	76041283	699	11003
2	76152838	700	10991
2	76264305	701	10993
2	76375893	702	10920
2	76487455	703	11016
2	76598934	704	10963
2	76710386	705	10948
2	76821940	706	10949
2	76933232	707	10961
2	77044875	708	11009
2	77156393	709	10988
2	77267861	710	10827
2	77379354	711	11024
2	77490885	712	10945
2	77602264	713	10979
2	77713803	714	10939
2	77825261	715	10937
2	77936804	716	10995
2	78048339	717	10898
2	78159849	718	11056
2	78271169	719	10891
2	78382896	720	10952
2	78494389	721	10977
2	78605794	722	10959
2	78717382	723	10959
2	78828913	724	10963
2	78940233	725	10987
2	79051768	726	10955
2	79163236	727	10909
2	79274778	728	11077
2	79386267	729	10881
2	79497902	730	10994
2	79609307	731	10932
2	79720832	732	11019
2	79832186	733	10963
2	79943744	734	10926
2	80055330	735	10973
2	80166780	736	10960
2	80278225	737	10961
2	80389766	738	10955
2	80501178	739	10992
2	80612813	740	10972
2	80724187	741	10978
2	80835755	742	10896
2	80947213	743	10978
2	81058678	744	10914
2	81170180	745	11004
2	81281614	746	11014
2	81393196	747	10857
2	81504706	748	11074
2	81616227	749	10963
2	81727694	750	10940
2	81839193	751	11013
2	81950698	752	10961
2	82062148	753	10920
2	82173723	754	10958
2	82285089	755	10950
2	82396574	756	10939
2	82508126	757	11032
2	82619567	758	10929
2	82731043	759	10999
2	82842643	760	10975
2	82954066	761	10917
2	83065645	762	10998
2	83177131	763	11044
2	83288508	764	10837
2	83400057	765	11028
2	83511570	766	10924
2	83623123	767	10895
2	83734629	768	11050
2	83845970	769	10916
2	83957562	770	10955
2	84069098	771	10999
2	84180478	772	10952
2	84291964	773	10914
2	84403590	774	11059
2	84514934	775	10925
2	84626434	776	10981
2	84737922	777	10912
2	84849502	778	10992
2	84960960	779	10915
2	85072460	780	11017
2	85183970	781	10993
2	85295337	782	10961
2	85406955	783	10968
2	85518426	784	10948
2	85629960	785	10983
2	85741401	786	10950
2	85852998	787	11023
2	85964434	788	10919
2	86075840	789	10961
2	86187596	790	10993
2	86298794	791	10866
2	86410582	792	11026
2	86521767	793	10925
2	86633337	794	11058
2	86744836	795	10880
2	86856485	796	11007
2	86967918	797	10940
2	87079275	798	11037
2	87190824	799	10876
2	87302286	800	11017
2	87413675	801	10966
2	87525389	802	11014
2	87636756	803	10865
2	87748265	804	11011
2	87859695	805	10956
2	87971282	806	10969
2	88082851	807	11014
2	88194133	808	10882
2	88305761	809	11027
2	88417242	810	10976
2	88528827	811	10882
2	88640210	812	10972
2	88751736	813	11015
2	88863210	814	10957
2	88974713	815	10945
2	89086334	816	11007
2	89197844	817	10930
2	89309135	818	11022
2	89420636	819	10887
2	89532174	820	10983
2	89643737	821	10996
2	89755217	822	10920
2	89866699	823	10904
2	89978234	824	11012
2	90089654	825	10947
2	90201167	826	11053
2	90312699	827	10922
2	90424258	828	10970
2	90535653	829	10955
2	90647094	830	10953
2	90758728	831	10928
2	90870226	832	10954
2	90981646	833	11088
2	91093136	834	10826
2	91204596	835	10992
2	91316081	836	11041
2	91427620	837	10903
2	91539106	838	10969
2	91650592	839	10983
2	91762134	840	10948
2	91873560	841	10918
2	91984996	842	11000
2	92096540	843	11015
2	92207974	844	10934
2	92319585	845	10960
2	92431103	846	10963
2	92542459	847	10988
2	92654109	848	10936
2	92765618	849	10915
2	92877022	850	10983
2	92988637	851	11013
2	93100020	852	10990
2	93211519	853	10956
2	93322999	854	10947
2	93434428	855	10962
2	93546016	856	10957
2	93657475	857	10983
2	93769065	858	10924
2	93880487	859	10970
2	93991886	860	10965
2	94103455	861	10948
2	94214867	862	11022
2	94326530	863	10926
2	94438014	864	10994
2	94549527	865	10987
2	94660975	866	10952
2	94772441	867	10964
2	94883986	868	10979
2	94995353	869	10862
2	95106834	870	11015
2	95218459	871	10932
2	95329945	872	11058
2	95441513	873	10991
2	95552937	874	10938
2	95664347	875	10927
2	95775967	876	10924
2	95887403	877	10956
2	95998794	878	10943
2	96110367	879	10968
2	96221981	880	10955
2	96333271	881	10963
2	96444810	882	10954
2	96556480	883	11004
2	96667778	884	10976
2	96779362	885	10894
2	96890894	886	11001
2	97002404	887	10938
2	97113861	888	11000
2	97225402	889	10962
2	97336864	890	10974
2	97448410	891	10920
2	97559817	892	10997
2	97671323	893	10966
2	97782813	894	10943
2	97894375	895	10995
2	98005706	896	10976
2	98117315	897	10902
2	98228852	898	10978
2	98340231	899	10913
2	98451849	900	10996
2	98563426	901	10998
2	98674816	902	11019
2	98786285	903	10928
2	98897824	904	10958
2	99009201	905	10993
2	99120758	906	10954
2	99232299	907	10950
2	99343789	908	10901
2	99455285	909	11033
2	99566698	910	10907
2	99678169	911	10995
2	99789795	912	10960
2	99901254	913	10930
2	100012689	914	10992
2	100124196	915	10935
2	100235624	916	10928
2	100347168	917	11015
2	100458925	918	10940
2	100570252	919	10942
2	100681666	920	10986
2	100793106	921	10984
2	100904678	922	10919
2	101016275	923	11025
2	101127619	924	10924
2	101239137	925	11018
2	101350721	926	10975
2	101462237	927	10971
2	101573538	928	10932
2	101685118	929	10964
2	101796543	930	10996
2	101908108	931	10923
2	102019627	932	10983
2	102131140	933	10989
2	102242596	934	10942
2	102354049	935	10968
2	102465623	936	10991
2	102577090	937	10937
2	102688624	938	10929
2	102800003	939	11057
2	102911430	940	10869
2	103023095	941	10942
2	103134480	942	10970
2	103245976	943	10935
2	103357540	944	11049
2	103469103	945	10957
2	103580557	946	10959
2	103692037	947	10953
2	103803537	948	10957
2	103915049	949	10955
2	104026342	950	10979
2	104137918	951	10995
2	104249564	952	10980
2	104361004	953	10969
2	104472470	954	10895
2	104584071	955	10959
2	104695503	956	11001
2	104807055	957	10905
2	104918501	958	10943
2	105030034	959	10930
2	105141439	960	10995
2	105253036	961	10984
2	105364501	962	10944
2	105476076	963	10996
2	105587487	964	10948
2	105698878	965	11018
2	105810465	966	10945
2	105921999	967	11017
2	106033350	968	10938
2	106145034	969	10986
2	106256404	970	10932
2	106368006	971	11005
2	106479306	972	10872
2	106590893	973	11018
2	106702244	974	10968
2	106813730	975	10920
2	106925297	976	11035
2	107036897	977	10971
2	107148403	978	10933
2	107259963	979	11015
2	107371292	980	10927
2	107482830	981	10997
2	107594350	982	10917
2	107705721	983	10894
2	107817316	984	11102
2	107928751	985	10903
2	108040232	986	10907
2	108151761	987	11006
2	108263272	988	10962
2	108374794	989	10965
2	108486367	990	10944
2	108597767	991	10971
2	108709275	992	10973
2	108820695	993	10962
2	108932283	994	10912
2	109043706	995	11001
2	109155292	996	11012
2	109266893	997	10947
2	109378259	998	10938
2	109489818	999	11006
3	55749344	517	0
3	55860824	518	0
3	55972443	519	0
3	56083794	520	0
3	56195430	521	0
3	56306970	522	0
3	56418299	523	0
3	56529897	524	0
3	56641432	525	0
3	56752807	526	0
3	56864363	527	0
3	56975834	528	0
3	57087376	529	0
3	57198856	530	0
3	57310154	531	0
3	57421844	532	0
3	57533392	533	0
3	57644828	534	0
3	57756288	535	0
3	57867687	536	0
3	57979210	537	0
3	58090815	538	0
3	58202214	539	0
3	58313693	540	0
3	58425321	541	0
3	58536731	542	0
3	58648302	543	0
3	58759734	544	0
3	58871154	545	0
3	58982847	546	0
3	59094158	547	0
3	59205577	548	0
3	59317214	549	0
3	59428840	550	0
3	59540214	551	0
3	59651739	552	0
3	59763058	553	0
3	59874711	554	0
3	59986240	555	0
3	60097658	556	0
3	60209020	557	0
3	60320681	558	0
3	60432147	559	0
3	60543619	560	0
3	60655269	561	0
3	60766691	562	0
3	60878133	563	0
3	60989678	564	0
3	61101070	565	0
3	61212624	566	0
3	61324111	567	0
3	61435673	568	0
3	61547015	569	0
3	61658463	570	0
3	61770020	571	0
3	61881515	572	0
3	61993011	573	0
3	62104609	574	0
3	62216192	575	0
3	62327563	576	0
3	62439146	577	0
3	62550712	578	0
3	62662160	579	0
3	62773439	580	0
3	62885075	581	0
3	62996582	582	0
3	63108137	583	0
3	63219455	584	0
3	63331020	585	0
3	63442577	586	0
3	63553958	587	0
3	63665436	588	0
3	63777111	589	0
3	63888435	590	0
3	64000024	591	0
3	64111355	592	0
3	64222917	593	0
3	64334572	594	0
3	64446078	595	0
3	64557384	596	0
3	64668901	597	0
3	64780453	598	0
3	64891779	599	0
3	65003490	600	0
3	65114982	601	0
3	65226425	602	0
3	65337943	603	0
3	65449399	604	0
3	65560793	605	0
3	65672415	606	0
3	65783904	607	0
3	65895421	608	0
3	66006972	609	0
3	66118305	610	0
3	66229855	611	0
3	66341498	612	0
3	66452882	613	0
3	66564488	614	0
3	66675889	615	0
3	66787391	616	0
3	66898894	617	0
3	67010415	618	0
3	67121949	619	0
3	67233346	620	0
3	67344753	621	0
3	67456213	622	0
3	67567832	623	0
3	67679344	624	0
3	67790743	625	0
3	67902318	626	0
3	68013850	627	0
3	68125382	628	0
3	68236696	629	0
3	68348278	630	0
3	68459775	631	0
3	68571234	632	0
3	68682738	633	0
3	68794132	634	0
3	68905602	635	0
3	69017138	636	0
3	69128640	637	0
3	69240159	638	0
3	69351676	639	0
3	69463113	640	0
3	69574703	641	0
3	69686252	642	0
3	69797678	643	0
3	69909178	644	0
3	70020637	645	0
3	70132227	646	0
3	70243741	647	0
3	70355148	648	0
3	70466606	649	0
3	70578161	650	0
3	70689758	651	0
3	70801302	652	0
3	70912598	653	0
3	71024084	654	0
3	71135483	655	0
3	71247241	656	0
3	71358588	657	0
3	71470105	658	0
3	71581681	659	0
3	71693028	660	0
3	71804671	661	0
3	71916162	662	0
3	72027517	663	0
3	72139041	664	0
3	72250615	665	0
3	72362048	666	0
3	72473743	667	0
3	72585074	668	0
3	72696687	669	0
3	72808059	670	0
3	72919609	671	0
3	73030971	672	0
3	73142596	673	0
3	73254101	674	0
3	73365594	675	0
3	73477013	676	0
3	73588546	677	0
3	73700037	678	0
3	73811603	679	0
3	73922958	680	0
3	74034437	681	0
3	74145965	682	0
3	74257402	683	0
3	74369073	684	0
3	74480518	685	0
3	74592084	686	0
3	74703460	687	0
3	74815014	688	0
3	74926556	689	0
3	75037984	690	0
3	75149303	691	0
3	75260924	692	0
3	75372573	693	0
3	75484084	694	0
3	75595488	695	0
3	75706954	696	0
3	75818396	697	0
3	75929949	698	0
3	76041283	699	0
3	76152838	700	0
3	76264305	701	0
3	76375893	702	0
3	76487455	703	0
3	76598934	704	0
3	76710386	705	0
3	76821940	706	0
3	76933232	707	0
3	77044875	708	0
3	77156393	709	0
3	77267861	710	0
3	77379354	711	0
3	77490885	712	0
3	77602264	713	0
3	77713803	714	0
3	77825261	715	0
3	77936804	716	0
3	78048339	717	0
3	78159849	718	0
3	78271169	719	0
3	78382896	720	0
3	78494389	721	0
3	78605794	722	0
3	78717382	723	0
3	78828913	724	0
3	78940233	725	0
3	79051768	726	0
3	79163236	727	0
3	79274778	728	0
3	79386267	729	0
3	79497902	730	0
3	79609307	731	0
3	79720832	732	0
3	79832186	733	0
3	79943744	734	0
3	80055330	735	0
3	80166780	736	0
3	80278225	737	0
3	80389766	738	0
3	80501178	739	0
3	80612813	740	0
3	80724187	741	0
3	80835755	742	0
3	80947213	743	0
3	81058678	744	0
3	81170180	745	0
3	81281614	746	0
3	81393196	747	0
3	81504706	748	0
3	81616227	749	0
3	81727694	750	0
3	81839193	751	0
3	81950698	752	0
3	82062148	753	0
3	82173723	754	0
3	82285089	755	0
3	82396574	756	0
3	82508126	757	0
3	82619567	758	0
3	82731043	759	0
3	82842643	760	0
3	82954066	761	0
3	83065645	762	0
3	83177131	763	0
3	83288508	764	0
3	83400057	765	0
3	83511570	766	0
3	83623123	767	0
3	83734629	768	0
3	83845970	769	0
3	83957562	770	0
3	84069098	771	0
3	84180478	772	0
3	84291964	773	0
3	84403590	774	0
3	84514934	775	0
3	84626434	776	0
3	84737922	777	0
3	84849502	778	0
3	84960960	779	0
3	85072460	780	0
3	85183970	781	0
3	85295337	782	0
3	85406955	783	0
3	85518426	784	0
3	85629960	785	0
3	85741401	786	0
3	85852998	787	0
3	85964434	788	0
3	86075840	789	0
3	86187596	790	0
3	86298794	791	0
3	86410582	792	0
3	86521767	793	0
3	86633337	794	0
3	86744836	795	0
3	86856485	796	0
3	86967918	797	0
3	87079275	798	0
3	87190824	799	0
3	87302286	800	0
3	87413675	801	0
3	87525389	802	0
3	87636756	803	0
3	87748265	804	0
3	87859695	805	0
3	87971282	806	0
3	88082851	807	0
3	88194133	808	0
3	88305761	809	0
3	88417242	810	0
3	88528827	811	0
3	88640210	812	0
3	88751736	813	0
3	88863210	814	0
3	88974713	815	0
3	89086334	816	0
3	89197844	817	0
3	89309135	818	0
3	89420636	819	0
3	89532174	820	0
3	89643737	821	0
3	89755217	822	0
3	89866699	823	0
3	89978234	824	0
3	90089654	825	0
3	90201167	826	0
3	90312699	827	0
3	90424258	828	0
3	90535653	829	0
3	90647094	830	0
3	90758728	831	0
3	90870226	832	0
3	90981646	833	0
3	91093136	834	0
3	91204596	835	0
3	91316081	836	0
3	91427620	837	0
3	91539106	838	0
3	91650592	839	0
3	91762134	840	0
3	91873560	841	0
3	91984996	842	0
3	92096540	843	0
3	92207974	844	0
3	92319585	845	0
3	92431103	846	0
3	92542459	847	0
3	92654109	848	0
3	92765618	849	0
3	92877022	850	0
3	92988637	851	0
3	93100020	852	0
3	93211519	853	0
3	93322999	854	0
3	93434428	855	0
3	93546016	856	0
3	93657475	857	0
3	93769065	858	0
3	93880487	859	0
3	93991886	860	0
3	94103455	861	0
3	94214867	862	0
3	94326530	863	0
3	94438014	864	0
3	94549527	865	0
3	94660975	866	0
3	94772441	867	0
3	94883986	868	0
3	94995353	869	0
3	95106834	870	0
3	95218459	871	0
3	95329945	872	0
3	95441513	873	0
3	95552937	874	0
3	95664347	875	0
3	95775967	876	0
3	95887403	877	0
3	95998794	878	0
3	96110367	879	0
3	96221981	880	0
3	96333271	881	0
3	96444810	882	0
3	96556480	883	0
3	96667778	884	0
3	96779362	885	0
3	96890894	886	0
3	97002404	887	0
3	97113861	888	0
3	97225402	889	0
3	97336864	890	0
3	97448410	891	0
3	97559817	892	0
3	97671323	893	0
3	97782813	894	0
3	97894375	895	0
3	98005706	896	0
3	98117315	897	0
3	98228852	898	0
3	98340231	899	0
3	98451849	900	0
3	98563426	901	0
3	98674816	902	0
3	98786285	903	0
3	98897824	904	0
3	99009201	905	0
3	99120758	906	0
3	99232299	907	0
3	99343789	908	0
3	99455285	909	0
3	99566698	910	0
3	99678169	911	0
3	99789795	912	0
3	99901254	913	0
3	100012689	914	0
3	100124196	915	0
3	100235624	916	0
3	100347168	917	0
3	100458925	918	0
3	100570252	919	0
3	100681666	920	0
3	100793106	921	0
3	100904678	922	0
3	101016275	923	0
3	101127619	924	0
3	101239137	925	0
3	101350721	926	0
3	101462237	927	0
3	101573538	928	0
3	101685118	929	0
3	101796543	930	0
3	101908108	931	0
3	102019627	932	0
3	102131140	933	0
3	102242596	934	0
3	102354049	935	0
3	102465623	936	0
3	102577090	937	0
3	102688624	938	0
3	102800003	939	0
3	102911430	940	0
3	103023095	941	0
3	103134480	942	0
3	103245976	943	0
3	103357540	944	0
3	103469103	945	0
3	103580557	946	0
3	103692037	947	0
3	103803537	948	0
3	103915049	949	0
3	104026342	950	0
3	104137918	951	0
3	104249564	952	0
3	104361004	953	0
3	104472470	954	0
3	104584071	955	0
3	104695503	956	0
3	104807055	957	0
3	104918501	958	0
3	105030034	959	0