version 2
run BasicCC-3-20100909-22:17:08-3400
attr configname BasicCC
attr datetime 20100909-22:17:08
attr experiment BasicCC
attr inifile D:/Developement/Oversim2/multic/simulations/omnetpp.ini
attr iterationvars $rateIncoming=100000
attr iterationvars2 "$rateIncoming=100000, $repetition=0"
attr measurement $rateIncoming=100000
attr network oversim.underlay.simpleunderlay.SimpleUnderlayNetwork
attr processid 3400
attr rateIncoming 100000
attr repetition 0
attr replication #0
attr resultdir results
attr runnumber 3
attr seedset 3

vector 1  SimpleUnderlayNetwork.globalObserver.globalStatistics  incoming_bytes  ETV
vector 2  SimpleUnderlayNetwork.globalObserver.globalStatistics  drops  ETV
vector 3  SimpleUnderlayNetwork.globalObserver.globalStatistics  delayed_acks  ETV
vector 4  SimpleUnderlayNetwork.globalObserver.globalStatistics  "GlobalNodeList: Number of nodes"  ETV
vector 5  SimpleUnderlayNetwork.globalObserver.globalStatistics  "GlobalNodeList: Number of bootstrapped malicious nodes"  ETV
1	53754065	520	53
1	53861399	521	0
1	53968933	522	53
1	54076211	523	0
1	54183581	524	0
1	54291123	525	53
1	54398487	526	53
1	54506022	527	0
1	54613438	528	106
1	54720672	529	53
1	54828165	530	53
1	54935680	531	53
1	55043087	532	0
1	55150494	533	53
1	55257879	534	159
1	55365295	535	0
1	55472718	536	53
1	55580103	537	106
1	55687575	538	53
1	55795002	539	0
1	55902419	540	106
1	56009696	541	159
1	56117116	542	53
1	56224636	543	159
1	56331970	544	53
1	56439527	545	53
1	56546957	546	0
1	56654357	547	0
1	56761803	548	106
1	56869114	549	0
1	56976559	550	53
1	57083931	551	159
1	57191474	552	106
1	57298743	553	53
1	57406363	554	106
1	57513568	555	0
1	57621015	556	106
1	57728594	557	53
1	57835897	558	106
1	57943357	559	106
1	58050747	560	0
1	58158138	561	53
1	58265584	562	0
1	58372955	563	212
1	58480513	564	0
1	58587741	565	53
1	58695329	566	0
1	58802683	567	0
1	58910120	568	159
1	59017506	569	106
1	59124989	570	53
1	59232363	571	106
1	59339830	572	106
1	59447178	573	0
1	59554544	574	106
1	59662037	575	53
1	59769429	576	159
1	59876823	577	53
1	59984207	578	0
1	60091677	579	53
1	60199105	580	106
1	60306662	581	0
1	60413953	582	0
1	60521402	583	106
1	60628956	584	265
1	60736258	585	159
1	60843642	586	106
1	60951110	587	106
1	61058531	588	53
1	61165899	589	0
1	61273262	590	53
1	61380718	591	106
1	61488103	592	159
1	61595659	593	0
1	61703029	594	0
1	61810319	595	0
1	61917855	596	53
1	62025231	597	0
1	62132712	598	53
1	62240191	599	53
1	62347411	600	159
1	62454903	601	159
1	62562227	602	159
1	62669692	603	53
1	62777090	604	0
1	62884544	605	106
1	62992108	606	0
1	63099430	607	0
1	63206849	608	53
1	63314232	609	53
1	63421573	610	53
1	63529018	611	53
1	63636489	612	106
1	63743889	613	53
1	63851359	614	53
1	63958689	615	106
1	64066157	616	53
1	64173612	617	53
1	64280988	618	53
1	64388425	619	53
1	64495870	620	0
1	64603255	621	53
1	64710772	622	0
1	64817984	623	53
1	64925530	624	0
1	65032998	625	53
1	65140286	626	53
1	65247702	627	0
1	65355147	628	53
1	65462656	629	106
1	65569997	630	159
1	65677403	631	106
1	65784891	632	159
1	65892269	633	53
1	65999622	634	106
1	66107113	635	0
1	66214567	636	0
1	66321916	637	159
1	66429336	638	159
1	66536773	639	106
1	66644232	640	159
1	66751680	641	53
1	66859013	642	0
1	66966398	643	159
1	67073834	644	159
1	67181288	645	159
1	67288703	646	53
1	67396189	647	0
1	67503560	648	53
1	67610941	649	212
1	67718414	650	159
1	67825881	651	53
1	67933180	652	159
1	68040630	653	53
1	68147974	654	0
1	68255561	655	159
1	68362840	656	0
1	68470293	657	53
1	68577689	658	53
1	68685135	659	106
1	68792556	660	0
1	68899915	661	53
1	69007453	662	53
1	69114802	663	212
1	69222143	664	106
1	69329725	665	159
1	69437116	666	0
1	69544565	667	0
1	69651890	668	106
1	69759362	669	106
1	69866835	670	53
1	69974145	671	53
1	70081559	672	53
1	70189038	673	0
1	70296429	674	53
1	70403892	675	106
1	70511280	676	159
1	70618788	677	0
1	70726039	678	53
1	70833453	679	53
1	70940962	680	0
1	71048441	681	0
1	71155802	682	53
1	71263071	683	53
1	71370547	684	53
1	71477964	685	106
1	71585492	686	53
1	71692746	687	212
1	71800223	688	0
1	71907722	689	53
1	72015141	690	53
1	72122537	691	212
1	72230027	692	106
1	72337409	693	53
1	72444638	694	106
1	72552204	695	53
1	72659705	696	106
1	72767050	697	0
1	72874364	698	53
1	72981958	699	106
1	73089346	700	53
1	73196719	701	53
1	73304119	702	159
1	73411522	703	106
1	73519014	704	106
1	73626307	705	53
1	73733796	706	159
1	73841144	707	159
1	73948670	708	53
1	74055983	709	106
1	74163493	710	53
1	74270945	711	0
1	74378426	712	53
1	74485751	713	53
1	74593162	714	106
1	74700528	715	53
1	74807990	716	0
1	74915432	717	53
1	75022735	718	106
1	75130319	719	106
1	75237596	720	106
1	75345050	721	53
1	75452523	722	0
1	75559897	723	159
1	75667366	724	0
1	75774827	725	0
1	75882172	726	0
1	75989571	727	53
1	76097083	728	265
1	76204377	729	53
1	76311826	730	53
1	76419376	731	0
1	76526651	732	53
1	76634125	733	53
1	76741436	734	53
1	76848944	735	53
1	76956339	736	0
1	77063880	737	106
1	77171253	738	106
1	77278688	739	159
1	77386053	740	53
1	77493433	741	265
1	77600733	742	53
1	77708299	743	106
1	77815774	744	106
1	77923103	745	53
1	78030645	746	53
1	78137889	747	106
1	78245334	748	53
1	78352770	749	106
1	78460161	750	0
1	78567659	751	0
1	78674953	752	212
1	78782424	753	106
1	78889896	754	53
1	78997279	755	212
1	79104858	756	106
1	79212152	757	106
1	79319559	758	159
1	79426955	759	53
1	79534340	760	106
1	79641805	761	53
1	79749247	762	106
1	79856629	763	53
1	79964056	764	0
1	80071445	765	53
1	80178762	766	53
1	80286359	767	0
1	80393788	768	159
1	80501203	769	159
1	80608597	770	53
1	80715985	771	0
1	80823400	772	53
1	80930809	773	0
1	81038249	774	106
1	81145637	775	106
1	81253064	776	106
1	81360524	777	53
1	81467862	778	0
1	81575430	779	159
1	81682783	780	106
1	81790063	781	0
1	81897627	782	0
1	82004979	783	106
1	82112431	784	106
1	82219858	785	106
1	82327279	786	106
1	82434611	787	0
1	82542149	788	106
1	82649587	789	0
1	82756841	790	53
1	82864327	791	106
1	82971815	792	265
1	83079210	793	159
1	83186634	794	53
1	83294029	795	53
1	83401342	796	106
1	83508944	797	0
1	83616302	798	159
1	83723690	799	0
1	83831194	800	53
1	83938507	801	106
1	84045950	802	53
1	84153540	803	0
1	84260755	804	159
1	84368122	805	0
1	84475671	806	106
1	84583105	807	106
1	84690490	808	53
1	84797834	809	0
1	84905331	810	0
1	85012780	811	159
1	85120223	812	0
1	85227606	813	53
1	85334986	814	53
1	85442454	815	106
1	85549903	816	53
1	85657235	817	106
1	85764645	818	53
1	85872020	819	106
1	85979486	820	0
1	86087052	821	159
1	86194339	822	53
1	86301768	823	0
1	86409134	824	106
1	86516678	825	0
1	86624015	826	106
1	86731429	827	0
1	86838814	828	106
1	86946281	829	106
1	87053568	830	0
1	87161082	831	53
1	87268498	832	159
1	87375963	833	0
1	87483365	834	106
1	87590724	835	53
1	87698197	836	0
1	87805526	837	159
1	87912984	838	53
1	88020485	839	53
1	88127758	840	159
1	88235384	841	53
1	88342646	842	106
1	88450056	843	53
1	88557667	844	53
1	88664940	845	212
1	88772412	846	53
1	88879812	847	0
1	88987120	848	53
1	89094636	849	212
1	89201935	850	53
1	89309416	851	53
1	89416953	852	53
1	89524332	853	0
1	89631756	854	106
1	89739219	855	0
1	89846447	856	53
1	89953953	857	0
1	90061347	858	159
1	90168841	859	106
1	90276229	860	0
1	90383571	861	53
1	90491037	862	106
1	90598475	863	53
1	90705873	864	0
1	90813320	865	159
1	90920756	866	53
1	91028132	867	53
1	91135440	868	53
1	91242989	869	159
1	91350430	870	53
1	91457853	871	212
1	91565347	872	53
1	91672647	873	318
1	91780126	874	159
1	91887492	875	159
1	91994981	876	0
1	92102287	877	159
1	92209838	878	53
1	92317138	879	0
1	92424569	880	0
1	92532036	881	53
1	92639419	882	106
1	92746860	883	53
1	92854287	884	53
1	92961633	885	159
1	93069044	886	106
1	93176531	887	212
1	93283903	888	53
1	93391325	889	53
1	93498854	890	53
1	93606150	891	53
1	93713695	892	53
1	93820968	893	159
1	93928423	894	0
1	94035908	895	0
1	94143267	896	53
1	94250682	897	53
1	94358214	898	106
1	94465554	899	53
1	94572904	900	0
1	94680269	901	212
1	94787837	902	159
1	94895252	903	53
1	95002623	904	0
1	95110097	905	159
1	95217569	906	159
1	95324848	907	53
1	95432294	908	106
1	95539665	909	212
1	95647036	910	0
1	95754561	911	0
1	95861921	912	53
1	95969431	913	0
1	96076854	914	159
1	96184131	915	0
1	96291701	916	53
1	96399082	917	53
1	96506497	918	53
1	96613851	919	106
1	96721243	920	159
1	96828782	921	106
1	96936199	922	0
1	97043686	923	53
1	97151057	924	53
1	97258500	925	0
1	97365808	926	159
1	97473293	927	53
1	97580718	928	159
1	97688086	929	159
1	97795469	930	53
1	97902946	931	106
1	98010379	932	53
1	98117790	933	106
1	98225186	934	106
1	98332564	935	53
1	98440003	936	53
1	98547514	937	53
1	98654842	938	0
1	98762319	939	53
1	98869708	940	53
1	98977036	941	53
1	99084501	942	212
1	99191816	943	53
1	99299358	944	53
1	99406716	945	53
1	99514215	946	53
1	99621687	947	159
1	99729012	948	53
1	99836403	949	0
1	99943840	950	0
1	100051395	951	212
1	100158726	952	159
1	100266085	953	53
1	100373562	954	106
1	100480969	955	53
1	100588406	956	0
1	100695846	957	106
1	100803211	958	106
1	100910611	959	53
1	101018048	960	0
1	101125480	961	159
1	101232881	962	53
1	101340304	963	106
1	101447692	964	106
1	101555227	965	106
1	101662651	966	106
1	101769960	967	53
1	101877367	968	159
1	101984790	969	53
1	102092284	970	212
1	102199593	971	53
1	102307100	972	53
1	102414449	973	106
1	102521904	974	53
1	102629326	975	0
1	102736658	976	0
1	102844196	977	106
1	102951628	978	0
1	103059047	979	212
1	103166433	980	0
1	103273865	981	53
1	103381183	982	159
1	103488662	983	53
1	103596073	984	0
1	103703561	985	53
1	103810883	986	159
1	103918297	987	0
1	104025845	988	106
1	104133254	989	53
1	104240664	990	212
1	104347953	991	0
1	104455485	992	0
1	104562878	993	0
1	104670270	994	159
1	104777657	995	106
1	104885197	996	0
1	104992484	997	106
1	105099897	998	53
1	105207390	999	0
2	53754065	520	7054
2	53861399	521	14987
2	53968933	522	15096
2	54076211	523	14990
2	54183581	524	15005
2	54291123	525	15106
2	54398487	526	15018
2	54506022	527	15089
2	54613438	528	15052
2	54720672	529	14929
2	54828165	530	15080
2	54935680	531	15091
2	55043087	532	15053
2	55150494	533	15022
2	55257879	534	15032
2	55365295	535	15032
2	55472718	536	15036
2	55580103	537	15026
2	55687575	538	15084
2	55795002	539	15038
2	55902419	540	15027
2	56009696	541	14979
2	56117116	542	15033
2	56224636	543	15095
2	56331970	544	15012
2	56439527	545	15094
2	56546957	546	15038
2	56654357	547	15039
2	56761803	548	15052
2	56869114	549	14986
2	56976559	550	15061
2	57083931	551	15003
2	57191474	552	15096
2	57298743	553	14978
2	57406363	554	15127
2	57513568	555	14945
2	57621015	556	15055
2	57728594	557	15108
2	57835897	558	14988
2	57943357	559	15072
2	58050747	560	15024
2	58158138	561	15032
2	58265584	562	15050
2	58372955	563	15013
2	58480513	564	15108
2	58587741	565	14959
2	58695329	566	15108
2	58802683	567	15006
2	58910120	568	15050
2	59017506	569	15031
2	59124989	570	15075
2	59232363	571	15029
2	59339830	572	15043
2	59447178	573	15030
2	59554544	574	15004
2	59662037	575	15068
2	59769429	576	15040
2	59876823	577	15036
2	59984207	578	14988
2	60091677	579	15085
2	60199105	580	15059
2	60306662	581	15091
2	60413953	582	14976
2	60521402	583	15065
2	60628956	584	15088
2	60736258	585	14980
2	60843642	586	15034
2	60951110	587	15054
2	61058531	588	15026
2	61165899	589	15038
2	61273262	590	15012
2	61380718	591	15054
2	61488103	592	15033
2	61595659	593	15104
2	61703029	594	15014
2	61810319	595	14993
2	61917855	596	15085
2	62025231	597	15023
2	62132712	598	15084
2	62240191	599	15046
2	62347411	600	14952
2	62454903	601	15064
2	62562227	602	15000
2	62669692	603	15072
2	62777090	604	15038
2	62884544	605	15044
2	62992108	606	15108
2	63099430	607	15000
2	63206849	608	15028
2	63314232	609	15049
2	63421573	610	14999
2	63529018	611	15041
2	63636489	612	15069
2	63743889	613	15036
2	63851359	614	15049
2	63958689	615	14994
2	64066157	616	15073
2	64173612	617	15031
2	64280988	618	15062
2	64388425	619	15056
2	64495870	620	15020
2	64603255	621	15041
2	64710772	622	15099
2	64817984	623	14920
2	64925530	624	15108
2	65032998	625	15070
2	65140286	626	14982
2	65247702	627	15025
2	65355147	628	15078
2	65462656	629	15082
2	65569997	630	14995
2	65677403	631	15039
2	65784891	632	15055
2	65892269	633	15015
2	65999622	634	15011
2	66107113	635	15076
2	66214567	636	15062
2	66321916	637	15018
2	66429336	638	15018
2	66536773	639	15058
2	66644232	640	15064
2	66751680	641	15050
2	66859013	642	14997
2	66966398	643	15033
2	67073834	644	15023
2	67181288	645	15059
2	67288703	646	15063
2	67396189	647	15060
2	67503560	648	15007
2	67610941	649	15025
2	67718414	650	15062
2	67825881	651	15076
2	67933180	652	14993
2	68040630	653	15045
2	68147974	654	14992
2	68255561	655	15131
2	68362840	656	14961
2	68470293	657	15069
2	68577689	658	15028
2	68685135	659	15055
2	68792556	660	15035
2	68899915	661	15026
2	69007453	662	15077
2	69114802	663	15011
2	69222143	664	15014
2	69329725	665	15108
2	69437116	666	15029
2	69544565	667	15065
2	69651890	668	14984
2	69759362	669	15071
2	69866835	670	15065
2	69974145	671	14978
2	70081559	672	15054
2	70189038	673	15056
2	70296429	674	15026
2	70403892	675	15065
2	70511280	676	15036
2	70618788	677	15077
2	70726039	678	14950
2	70833453	679	15052
2	70940962	680	15076
2	71048441	681	15067
2	71155802	682	15021
2	71263071	683	14962
2	71370547	684	15073
2	71477964	685	15055
2	71585492	686	15075
2	71692746	687	14956
2	71800223	688	15088
2	71907722	689	15068
2	72015141	690	15028
2	72122537	691	15034
2	72230027	692	15056
2	72337409	693	15041
2	72444638	694	14976
2	72552204	695	15085
2	72659705	696	15069
2	72767050	697	15016
2	72874364	698	14986
2	72981958	699	15114
2	73089346	700	15049
2	73196719	701	15011
2	73304119	702	15029
2	73411522	703	15048
2	73519014	704	15057
2	73626307	705	14971
2	73733796	706	15076
2	73841144	707	15018
2	73948670	708	15086
2	74055983	709	14982
2	74163493	710	15087
2	74270945	711	15058
2	74378426	712	15078
2	74485751	713	14984
2	74593162	714	15033
2	74700528	715	15034
2	74807990	716	15042
2	74915432	717	15065
2	75022735	718	14986
2	75130319	719	15106
2	75237596	720	14987
2	75345050	721	15060
2	75452523	722	15049
2	75559897	723	15025
2	75667366	724	15066
2	75774827	725	15064
2	75882172	726	14982
2	75989571	727	15067
2	76097083	728	15055
2	76204377	729	14994
2	76311826	730	15059
2	76419376	731	15086
2	76526651	732	14980
2	76634125	733	15076
2	76741436	734	14980
2	76848944	735	15092
2	76956339	736	15032
2	77063880	737	15080
2	77171253	738	15032
2	77278688	739	15055
2	77386053	740	14998
2	77493433	741	15022
2	77600733	742	14989
2	77708299	743	15100
2	77815774	744	15077
2	77923103	745	14987
2	78030645	746	15088
2	78137889	747	14972
2	78245334	748	15057
2	78352770	749	15035
2	78460161	750	15045
2	78567659	751	15091
2	78674953	752	14955
2	78782424	753	15066
2	78889896	754	15072
2	78997279	755	15004
2	79104858	756	15126
2	79212152	757	14992
2	79319559	758	15016
2	79426955	759	15042
2	79534340	760	15009
2	79641805	761	15045
2	79749247	762	15077
2	79856629	763	15033
2	79964056	764	15026
2	80071445	765	15025
2	80178762	766	15008
2	80286359	767	15105
2	80393788	768	15048
2	80501203	769	15039
2	80608597	770	15035
2	80715985	771	15017
2	80823400	772	15063
2	80930809	773	15029
2	81038249	774	15037
2	81145637	775	15042
2	81253064	776	15026
2	81360524	777	15068
2	81467862	778	15017
2	81575430	779	15095
2	81682783	780	15013
2	81790063	781	14976
2	81897627	782	15102
2	82004979	783	15020
2	82112431	784	15041
2	82219858	785	15059
2	82327279	786	15023
2	82434611	787	15020
2	82542149	788	15077
2	82649587	789	15051
2	82756841	790	14978
2	82864327	791	15060
2	82971815	792	15058
2	83079210	793	15029
2	83186634	794	15038
2	83294029	795	15043
2	83401342	796	14988
2	83508944	797	15133
2	83616302	798	14993
2	83723690	799	15036
2	83831194	800	15088
2	83938507	801	14981
2	84045950	802	15068
2	84153540	803	15112
2	84260755	804	14935
2	84368122	805	15042
2	84475671	806	15081
2	84583105	807	15061
2	84690490	808	15018
2	84797834	809	14992
2	84905331	810	15085
2	85012780	811	15062
2	85120223	812	15046
2	85227606	813	15010
2	85334986	814	15065
2	85442454	815	15030
2	85549903	816	15064
2	85657235	817	14990
2	85764645	818	15046
2	85872020	819	15024
2	85979486	820	15078
2	86087052	821	15082
2	86194339	822	14989
2	86301768	823	15043
2	86409134	824	15003
2	86516678	825	15095
2	86624015	826	15024
2	86731429	827	15039
2	86838814	828	15014
2	86946281	829	15059
2	87053568	830	14983
2	87161082	831	15089
2	87268498	832	15041
2	87375963	833	15054
2	87483365	834	15024
2	87590724	835	15026
2	87698197	836	15067
2	87805526	837	14983
2	87912984	838	15074
2	88020485	839	15078
2	88127758	840	14961
2	88235384	841	15152
2	88342646	842	14960
2	88450056	843	15025
2	88557667	844	15161
2	88664940	845	14949
2	88772412	846	15047
2	88879812	847	15045
2	88987120	848	14992
2	89094636	849	15078
2	89201935	850	15009
2	89309416	851	15035
2	89416953	852	15111
2	89524332	853	15045
2	89631756	854	15023
2	89739219	855	15056
2	89846447	856	14944
2	89953953	857	15091
2	90061347	858	15044
2	90168841	859	15056
2	90276229	860	15011
2	90383571	861	15021
2	90491037	862	15078
2	90598475	863	15024
2	90705873	864	15031
2	90813320	865	15076
2	90920756	866	15020
2	91028132	867	15020
2	91135440	868	15029
2	91242989	869	15069
2	91350430	870	15069
2	91457853	871	15043
2	91565347	872	15061
2	91672647	873	14961
2	91780126	874	15068
2	91887492	875	15018
2	91994981	876	15078
2	92102287	877	14998
2	92209838	878	15085
2	92317138	879	14997
2	92424569	880	15056
2	92532036	881	15058
2	92639419	882	15025
2	92746860	883	15067
2	92854287	884	15020
2	92961633	885	15005
2	93069044	886	15043
2	93176531	887	15062
2	93283903	888	15021
2	93391325	889	15047
2	93498854	890	15086
2	93606150	891	14977
2	93713695	892	15104
2	93820968	893	14967
2	93928423	894	15058
2	94035908	895	15083
2	94143267	896	14986
2	94250682	897	15062
2	94358214	898	15090
2	94465554	899	15005
2	94572904	900	15008
2	94680269	901	15017
2	94787837	902	15092
2	94895252	903	15062
2	95002623	904	15011
2	95110097	905	15057
2	95217569	906	15071
2	95324848	907	14974
2	95432294	908	15043
2	95539665	909	15007
2	95647036	910	15044
2	95754561	911	15075
2	95861921	912	15009
2	95969431	913	15094
2	96076854	914	15033
2	96184131	915	14978
2	96291701	916	15124
2	96399082	917	15021
2	96506497	918	15023
2	96613851	919	15028
2	96721243	920	15019
2	96828782	921	15091
2	96936199	922	15055
2	97043686	923	15038
2	97151057	924	15049
2	97258500	925	15053
2	97365808	926	14971
2	97473293	927	15076
2	97580718	928	15044
2	97688086	929	15013
2	97795469	930	15034
2	97902946	931	15073
2	98010379	932	15023
2	98117790	933	15045
2	98225186	934	15031
2	98332564	935	15009
2	98440003	936	15062
2	98547514	937	15075
2	98654842	938	14993
2	98762319	939	15081
2	98869708	940	15044
2	98977036	941	14969
2	99084501	942	15063
2	99191816	943	15007
2	99299358	944	15085
2	99406716	945	15023
2	99514215	946	15084
2	99621687	947	15035
2	99729012	948	15011
2	99836403	949	15024
2	99943840	950	15059
2	100051395	951	15099
2	100158726	952	15000
2	100266085	953	15013
2	100373562	954	15060
2	100480969	955	15035
2	100588406	956	15061
2	100695846	957	15031
2	100803211	958	15035
2	100910611	959	15017
2	101018048	960	15046
2	101125480	961	15052
2	101232881	962	15025
2	101340304	963	15060
2	101447692	964	15015
2	101555227	965	15104
2	101662651	966	15023
2	101769960	967	14995
2	101877367	968	15022
2	101984790	969	15057
2	102092284	970	15083
2	102199593	971	14973
2	102307100	972	15084
2	102414449	973	15015
2	102521904	974	15037
2	102629326	975	15046
2	102736658	976	15029
2	102844196	977	15071
2	102951628	978	15051
2	103059047	979	15050
2	103166433	980	15007
2	103273865	981	15060
2	103381183	982	15001
2	103488662	983	15052
2	103596073	984	15057
2	103703561	985	15062
2	103810883	986	14993
2	103918297	987	15042
2	104025845	988	15098
2	104133254	989	15032
2	104240664	990	15028
2	104347953	991	14988
2	104455485	992	15089
2	104562878	993	15027
2	104670270	994	15047
2	104777657	995	15009
2	104885197	996	15102
2	104992484	997	14972
2	105099897	998	15046
2	105207390	999	15062
3	53754065	520	0
3	53861399	521	0
3	53968933	522	0
3	54076211	523	0
3	54183581	524	0
3	54291123	525	0
3	54398487	526	0
3	54506022	527	0
3	54613438	528	0
3	54720672	529	0
3	54828165	530	0
3	54935680	531	0
3	55043087	532	0
3	55150494	533	0
3	55257879	534	0
3	55365295	535	0
3	55472718	536	0
3	55580103	537	0
3	55687575	538	0
3	55795002	539	0
3	55902419	540	0
3	56009696	541	0
3	56117116	542	0
3	56224636	543	0
3	56331970	544	0
3	56439527	545	0
3	56546957	546	0
3	56654357	547	0
3	56761803	548	0
3	56869114	549	0
3	56976559	550	0
3	57083931	551	0
3	57191474	552	0
3	57298743	553	0
3	57406363	554	0
3	57513568	555	0
3	57621015	556	0
3	57728594	557	0
3	57835897	558	0
3	57943357	559	0
3	58050747	560	0
3	58158138	561	0
3	58265584	562	0
3	58372955	563	0
3	58480513	564	0
3	58587741	565	0
3	58695329	566	0
3	58802683	567	0
3	58910120	568	0
3	59017506	569	0
3	59124989	570	0
3	59232363	571	0
3	59339830	572	0
3	59447178	573	0
3	59554544	574	0
3	59662037	575	0
3	59769429	576	0
3	59876823	577	0
3	59984207	578	0
3	60091677	579	0
3	60199105	580	0
3	60306662	581	0
3	60413953	582	0
3	60521402	583	0
3	60628956	584	0
3	60736258	585	0
3	60843642	586	0
3	60951110	587	0
3	61058531	588	0
3	61165899	589	0
3	61273262	590	0
3	61380718	591	0
3	61488103	592	0
3	61595659	593	0
3	61703029	594	0
3	61810319	595	0
3	61917855	596	0
3	62025231	597	0
3	62132712	598	0
3	62240191	599	0
3	62347411	600	0
3	62454903	601	0
3	62562227	602	0
3	62669692	603	0
3	62777090	604	0
3	62884544	605	0
3	62992108	606	0
3	63099430	607	0
3	63206849	608	0
3	63314232	609	0
3	63421573	610	0
3	63529018	611	0
3	63636489	612	0
3	63743889	613	0
3	63851359	614	0
3	63958689	615	0
3	64066157	616	0
3	64173612	617	0
3	64280988	618	0
3	64388425	619	0
3	64495870	620	0
3	64603255	621	0
3	64710772	622	0
3	64817984	623	0
3	64925530	624	0
3	65032998	625	0
3	65140286	626	0
3	65247702	627	0
3	65355147	628	0
3	65462656	629	0
3	65569997	630	0
3	65677403	631	0
3	65784891	632	0
3	65892269	633	0
3	65999622	634	0
3	66107113	635	0
3	66214567	636	0
3	66321916	637	0
3	66429336	638	0
3	66536773	639	0
3	66644232	640	0
3	66751680	641	0
3	66859013	642	0
3	66966398	643	0
3	67073834	644	0
3	67181288	645	0
3	67288703	646	0
3	67396189	647	0
3	67503560	648	0
3	67610941	649	0
3	67718414	650	0
3	67825881	651	0
3	67933180	652	0
3	68040630	653	0
3	68147974	654	0
3	68255561	655	0
3	68362840	656	0
3	68470293	657	0
3	68577689	658	0
3	68685135	659	0
3	68792556	660	0
3	68899915	661	0
3	69007453	662	0
3	69114802	663	0
3	69222143	664	0
3	69329725	665	0
3	69437116	666	0
3	69544565	667	0
3	69651890	668	0
3	69759362	669	0
3	69866835	670	0
3	69974145	671	0
3	70081559	672	0
3	70189038	673	0
3	70296429	674	0
3	70403892	675	0
3	70511280	676	0
3	70618788	677	0
3	70726039	678	0
3	70833453	679	0
3	70940962	680	0
3	71048441	681	0
3	71155802	682	0
3	71263071	683	0
3	71370547	684	0
3	71477964	685	0
3	71585492	686	0
3	71692746	687	0
3	71800223	688	0
3	71907722	689	0
3	72015141	690	0
3	72122537	691	0
3	72230027	692	0
3	72337409	693	0
3	72444638	694	0
3	72552204	695	0
3	72659705	696	0
3	72767050	697	0
3	72874364	698	0
3	72981958	699	0
3	73089346	700	0
3	73196719	701	0
3	73304119	702	0
3	73411522	703	0
3	73519014	704	0
3	73626307	705	0
3	73733796	706	0
3	73841144	707	0
3	73948670	708	0
3	74055983	709	0
3	74163493	710	0
3	74270945	711	0
3	74378426	712	0
3	74485751	713	0
3	74593162	714	0
3	74700528	715	0
3	74807990	716	0
3	74915432	717	0
3	75022735	718	0
3	75130319	719	0
3	75237596	720	0
3	75345050	721	0
3	75452523	722	0
3	75559897	723	0
3	75667366	724	0
3	75774827	725	0
3	75882172	726	0
3	75989571	727	0
3	76097083	728	0
3	76204377	729	0
3	76311826	730	0
3	76419376	731	0
3	76526651	732	0
3	76634125	733	0
3	76741436	734	0
3	76848944	735	0
3	76956339	736	0
3	77063880	737	0
3	77171253	738	0
3	77278688	739	0
3	77386053	740	0
3	77493433	741	0
3	77600733	742	0
3	77708299	743	0
3	77815774	744	0
3	77923103	745	0
3	78030645	746	0
3	78137889	747	0
3	78245334	748	0
3	78352770	749	0
3	78460161	750	0
3	78567659	751	0
3	78674953	752	0
3	78782424	753	0
3	78889896	754	0
3	78997279	755	0
3	79104858	756	0
3	79212152	757	0
3	79319559	758	0
3	79426955	759	0
3	79534340	760	0
3	79641805	761	0
3	79749247	762	0
3	79856629	763	0
3	79964056	764	0
3	80071445	765	0
3	80178762	766	0
3	80286359	767	0
3	80393788	768	0
3	80501203	769	0
3	80608597	770	0
3	80715985	771	0
3	80823400	772	0
3	80930809	773	0
3	81038249	774	0
3	81145637	775	0
3	81253064	776	0
3	81360524	777	0
3	81467862	778	0
3	81575430	779	0
3	81682783	780	0
3	81790063	781	0
3	81897627	782	0
3	82004979	783	0
3	82112431	784	0
3	82219858	785	0
3	82327279	786	0
3	82434611	787	0
3	82542149	788	0
3	82649587	789	0
3	82756841	790	0
3	82864327	791	0
3	82971815	792	0
3	83079210	793	0
3	83186634	794	0
3	83294029	795	0
3	83401342	796	0
3	83508944	797	0
3	83616302	798	0
3	83723690	799	0
3	83831194	800	0
3	83938507	801	0
3	84045950	802	0
3	84153540	803	0
3	84260755	804	0
3	84368122	805	0
3	84475671	806	0
3	84583105	807	0
3	84690490	808	0
3	84797834	809	0
3	84905331	810	0
3	85012780	811	0
3	85120223	812	0
3	85227606	813	0
3	85334986	814	0
3	85442454	815	0
3	85549903	816	0
3	85657235	817	0
3	85764645	818	0
3	85872020	819	0
3	85979486	820	0
3	86087052	821	0
3	86194339	822	0
3	86301768	823	0
3	86409134	824	0
3	86516678	825	0
3	86624015	826	0
3	86731429	827	0
3	86838814	828	0
3	86946281	829	0
3	87053568	830	0
3	87161082	831	0
3	87268498	832	0
3	87375963	833	0
3	87483365	834	0
3	87590724	835	0
3	87698197	836	0
3	87805526	837	0
3	87912984	838	0
3	88020485	839	0
3	88127758	840	0
3	88235384	841	0
3	88342646	842	0
3	88450056	843	0
3	88557667	844	0
3	88664940	845	0
3	88772412	846	0
3	88879812	847	0
3	88987120	848	0
3	89094636	849	0
3	89201935	850	0
3	89309416	851	0
3	89416953	852	0
3	89524332	853	0
3	89631756	854	0
3	89739219	855	0
3	89846447	856	0
3	89953953	857	0
3	90061347	858	0
3	90168841	859	0
3	90276229	860	0
3	90383571	861	0
3	90491037	862	0
3	90598475	863	0
3	90705873	864	0
3	90813320	865	0
3	90920756	866	0
3	91028132	867	0
3	91135440	868	0
3	91242989	869	0
3	91350430	870	0
3	91457853	871	0
3	91565347	872	0
3	91672647	873	0
3	91780126	874	0
3	91887492	875	0
3	91994981	876	0
3	92102287	877	0
3	92209838	878	0
3	92317138	879	0
3	92424569	880	0
3	92532036	881	0
3	92639419	882	0
3	92746860	883	0
3	92854287	884	0
3	92961633	885	0
3	93069044	886	0
3	93176531	887	0
3	93283903	888	0
3	93391325	889	0
3	93498854	890	0
3	93606150	891	0
3	93713695	892	0
3	93820968	893	0
3	93928423	894	0
3	94035908	895	0
3	94143267	896	0
3	94250682	897	0
3	94358214	898	0
3	94465554	899	0
3	94572904	900	0
3	94680269	901	0
3	94787837	902	0
3	94895252	903	0
3	95002623	904	0
3	95110097	905	0
3	95217569	906	0
3	95324848	907	0
3	95432294	908	0
3	95539665	909	0
3	95647036	910	0
3	95754561	911	0
3	95861921	912	0
3	95969431	913	0
3	96076854	914	0
3	96184131	915	0
3	96291701	916	0
3	96399082	917	0
3	96506497	918	0
3	96613851	919	0
3	96721243	920	0
3	96828782	921	0
3	96936199	922	0
3	97043686	923	0
3	97151057	924	0
3	97258500	925	0
3	97365808	926	0
3	97473293	927	0
3	97580718	928	0
3	97688086	929	0
3	97795469	930	0
3	97902946	931	0
3	98010379	932	0
3	98117790	933	0
3	98225186	934	0
3	98332564	935	0
3	98440003	936	0
3	98547514	937	0
3	98654842	938	0
3	98762319	939	0
3	98869708	940	0
3	98977036	941	0
3	99084501	942	0
3	99191816	943	0
3	99299358	944	0
3	99406716	945	0
3	99514215	946	0
3	99621687	947	0
3	99729012	948	0
3	99836403	949	0
3	99943840	950	0
3	100051395	951	0
3	100158726	952	0
3	100266085	953	0
3	100373562	954	0
3	100480969	955	0
3	100588406	956	0
3	100695846	957	0
3	100803211	958	0
3	100910611	959	0
3	101018048	960	0
3	101125480	961	0
3	101232881	962	0
3	101340304	963	0
3	101447692	964	0
3	101555227	965	0
3	101662651	966	0
3	101769960	967	0
3	101877367	968	0
3	101984790	969	0
3	102092284	970	0
3	102199593	971	0
3	102307100	972	0
3	102414449	973	0
3	102521904	974	0
3	102629326	975	0
3	102736658	976	0
3	102844196	977	0
3	102951628	978	0
3	103059047	979	0
3	103166433	980	0
3	103273865	981	0
3	103381183	982	0
3	103488662	983	0
3	103596073	984	0
3	103703561	985	0
3	103810883	986	0
3	103918297	987	0
3	104025845	988	0
3	104133254	989	0
3	104240664	990	0
3	104347953	991	0
3	104455485	992	0
3	104562878	993	0
3	104670270	994	0
3	104777657	995	0
3	104885197	996	0
3	104992484	997	0
3	105099897	998	0
3	105207390	999	0
4	56976557	550	20
4	62347409	600	20
4	67718412	650	20
4	73089344	700	20
4	78460159	750	20
4	83831192	800	20
4	89201933	850	20
4	94572902	900	20
4	99943838	950	20
4	105314706	1000	20
5	56976557	550	0
5	62347409	600	0
5	67718412	650	0
5	73089344	700	0
5	78460159	750	0
5	83831192	800	0
5	89201933	850	0
5	94572902	900	0
5	99943838	950	0
5	105314706	1000	0
