version 2
run BasicCC-2-20100909-21:55:45-1936
attr configname BasicCC
attr datetime 20100909-21:55:45
attr experiment BasicCC
attr inifile D:/Developement/Oversim2/multic/simulations/omnetpp.ini
attr iterationvars $rateIncoming=200000
attr iterationvars2 "$rateIncoming=200000, $repetition=0"
attr measurement $rateIncoming=200000
attr network oversim.underlay.simpleunderlay.SimpleUnderlayNetwork
attr processid 1936
attr rateIncoming 200000
attr repetition 0
attr replication #0
attr resultdir results
attr runnumber 2
attr seedset 2

vector 1  SimpleUnderlayNetwork.globalObserver.globalStatistics  incoming_bytes  ETV
vector 2  SimpleUnderlayNetwork.globalObserver.globalStatistics  drops  ETV
vector 3  SimpleUnderlayNetwork.globalObserver.globalStatistics  delayed_acks  ETV
vector 4  SimpleUnderlayNetwork.globalObserver.globalStatistics  "GlobalNodeList: Number of nodes"  ETV
vector 5  SimpleUnderlayNetwork.globalObserver.globalStatistics  "GlobalNodeList: Number of bootstrapped malicious nodes"  ETV
1	54476556	519	583
1	54585173	520	583
1	54693996	521	424
1	54802721	522	265
1	54911650	523	954
1	55020341	524	424
1	55129071	525	636
1	55237843	526	795
1	55346722	527	477
1	55455356	528	583
1	55564180	529	689
1	55672868	530	742
1	55781758	531	477
1	55890432	532	477
1	55999240	533	636
1	56108032	534	954
1	56216753	535	636
1	56325642	536	901
1	56434201	537	742
1	56543135	538	742
1	56651851	539	742
1	56760546	540	636
1	56869360	541	424
1	56978180	542	583
1	57086911	543	530
1	57195707	544	636
1	57304394	545	530
1	57413246	546	530
1	57521953	547	477
1	57630793	548	424
1	57739532	549	583
1	57848392	550	742
1	57957120	551	583
1	58065805	552	583
1	58174615	553	795
1	58283373	554	371
1	58392104	555	477
1	58500883	556	636
1	58609604	557	848
1	58718483	558	530
1	58827240	559	477
1	58935955	560	742
1	59044731	561	424
1	59153596	562	742
1	59262315	563	901
1	59370977	564	636
1	59479830	565	636
1	59588656	566	583
1	59697317	567	530
1	59806181	568	583
1	59914902	569	424
1	60023640	570	371
1	60132503	571	742
1	60241201	572	689
1	60350043	573	795
1	60458841	574	689
1	60567513	575	689
1	60676281	576	530
1	60785156	577	848
1	60893885	578	583
1	61002636	579	848
1	61111407	580	424
1	61220131	581	901
1	61328954	582	689
1	61437593	583	477
1	61546447	584	318
1	61655236	585	954
1	61763955	586	477
1	61872758	587	636
1	61981454	588	636
1	62090338	589	583
1	62199140	590	424
1	62307729	591	477
1	62416598	592	477
1	62525420	593	477
1	62634160	594	636
1	62742918	595	636
1	62851614	596	477
1	62960421	597	424
1	63069249	598	477
1	63177923	599	636
1	63286781	600	477
1	63395643	601	954
1	63504333	602	636
1	63613014	603	530
1	63721842	604	636
1	63830519	605	583
1	63939335	606	424
1	64048155	607	636
1	64156734	608	424
1	64265704	609	530
1	64374334	610	689
1	64483161	611	636
1	64591959	612	795
1	64700725	613	477
1	64809536	614	795
1	64918288	615	583
1	65027034	616	530
1	65135745	617	265
1	65244608	618	583
1	65353302	619	1007
1	65462124	620	742
1	65570827	621	954
1	65679671	622	477
1	65788447	623	583
1	65897165	624	424
1	66005976	625	530
1	66114736	626	901
1	66223375	627	583
1	66332188	628	106
1	66441044	629	1007
1	66549785	630	530
1	66658549	631	795
1	66767205	632	1166
1	66876130	633	901
1	66984895	634	583
1	67093714	635	795
1	67202460	636	530
1	67311255	637	848
1	67419898	638	318
1	67528625	639	636
1	67637473	640	477
1	67746246	641	636
1	67855009	642	689
1	67963849	643	583
1	68072502	644	424
1	68181393	645	477
1	68290088	646	742
1	68398846	647	1007
1	68507687	648	689
1	68616440	649	636
1	68725185	650	265
1	68833955	651	742
1	68942730	652	689
1	69051415	653	795
1	69160243	654	477
1	69268992	655	583
1	69377794	656	583
1	69486559	657	477
1	69595357	658	424
1	69704067	659	742
1	69812859	660	689
1	69921551	661	424
1	70030378	662	477
1	70139107	663	742
1	70247927	664	530
1	70356674	665	424
1	70465443	666	583
1	70574177	667	1166
1	70682996	668	583
1	70791722	669	795
1	70900578	670	689
1	71009246	671	477
1	71118028	672	530
1	71226838	673	477
1	71335568	674	530
1	71444463	675	742
1	71553099	676	583
1	71661911	677	583
1	71770645	678	583
1	71879416	679	689
1	71988193	680	318
1	72096958	681	742
1	72205699	682	477
1	72314526	683	371
1	72423297	684	689
1	72532074	685	371
1	72640784	686	795
1	72749625	687	530
1	72858401	688	212
1	72967083	689	477
1	73075834	690	318
1	73184664	691	530
1	73293365	692	583
1	73402203	693	689
1	73511061	694	477
1	73619650	695	795
1	73728372	696	477
1	73837334	697	742
1	73946099	698	477
1	74054793	699	530
1	74163564	700	265
1	74272324	701	636
1	74380975	702	371
1	74489811	703	636
1	74598610	704	424
1	74707327	705	530
1	74816137	706	530
1	74924783	707	795
1	75033703	708	477
1	75142475	709	371
1	75251192	710	689
1	75359972	711	901
1	75468728	712	530
1	75577491	713	583
1	75686342	714	583
1	75795039	715	636
1	75903799	716	424
1	76012605	717	583
1	76121393	718	530
1	76230140	719	477
1	76338882	720	689
1	76447748	721	795
1	76556446	722	530
1	76665242	723	795
1	76774059	724	954
1	76882722	725	583
1	76991504	726	583
1	77100303	727	318
1	77209076	728	1113
1	77317774	729	530
1	77426651	730	848
1	77535290	731	636
1	77644167	732	583
1	77752955	733	583
1	77861728	734	689
1	77970445	735	424
1	78079166	736	583
1	78187937	737	530
1	78296696	738	742
1	78405544	739	583
1	78514298	740	795
1	78623008	741	318
1	78731811	742	530
1	78840514	743	530
1	78949388	744	901
1	79058103	745	742
1	79166911	746	424
1	79275558	747	742
1	79384457	748	742
1	79493153	749	795
1	79601965	750	636
1	79710748	751	742
1	79819478	752	689
1	79928181	753	583
1	80037083	754	795
1	80145776	755	477
1	80254535	756	530
1	80363313	757	689
1	80472223	758	795
1	80580849	759	583
1	80689584	760	424
1	80798323	761	742
1	80907181	762	477
1	81015937	763	371
1	81124713	764	689
1	81233505	765	530
1	81342309	766	371
1	81451087	767	795
1	81559817	768	742
1	81668620	769	742
1	81777259	770	848
1	81885995	771	424
1	81994902	772	530
1	82103695	773	477
1	82212382	774	424
1	82321232	775	583
1	82429993	776	742
1	82538611	777	477
1	82647423	778	583
1	82756252	779	424
1	82865098	780	742
1	82973856	781	424
1	83082522	782	636
1	83191336	783	371
1	83300032	784	318
1	83408875	785	636
1	83517534	786	424
1	83626420	787	583
1	83735103	788	530
1	83843865	789	265
1	83952680	790	689
1	84061507	791	530
1	84170190	792	742
1	84278950	793	636
1	84387714	794	424
1	84496464	795	689
1	84605238	796	689
1	84714082	797	795
1	84822875	798	424
1	84931627	799	530
1	85040437	800	583
1	85149148	801	424
1	85257803	802	795
1	85366712	803	477
1	85475414	804	318
1	85584268	805	530
1	85692963	806	424
1	85801669	807	477
1	85910535	808	795
1	86019250	809	689
1	86128076	810	477
1	86236798	811	689
1	86345591	812	848
1	86454355	813	583
1	86563199	814	636
1	86672003	815	477
1	86780634	816	689
1	86889449	817	954
1	86998220	818	371
1	87106983	819	477
1	87215750	820	583
1	87324483	821	424
1	87433294	822	636
1	87541998	823	742
1	87650837	824	371
1	87759551	825	689
1	87868380	826	689
1	87977120	827	689
1	88085784	828	318
1	88194618	829	424
1	88303481	830	530
1	88412024	831	795
1	88520859	832	954
1	88629745	833	848
1	88738574	834	371
1	88847212	835	742
1	88956013	836	689
1	89064776	837	795
1	89173471	838	530
1	89282359	839	848
1	89391230	840	742
1	89499891	841	636
1	89608611	842	583
1	89717460	843	636
1	89826147	844	424
1	89934916	845	371
1	90043624	846	636
1	90152531	847	636
1	90261255	848	530
1	90369988	849	530
1	90478743	850	424
1	90587496	851	689
1	90696310	852	530
1	90805050	853	689
1	90913916	854	689
1	91022597	855	742
1	91131373	856	477
1	91240097	857	636
1	91348896	858	583
1	91457573	859	530
1	91566455	860	583
1	91675185	861	477
1	91783976	862	477
1	91892735	863	1007
1	92001595	864	477
1	92110270	865	477
1	92219018	866	371
1	92327803	867	689
1	92436644	868	848
1	92545311	869	742
1	92654113	870	477
1	92762935	871	371
1	92871674	872	742
1	92980285	873	742
1	93089157	874	530
1	93197963	875	583
1	93306835	876	689
1	93415587	877	477
1	93524274	878	636
1	93632972	879	477
1	93741881	880	742
1	93850619	881	636
1	93959352	882	795
1	94068245	883	530
1	94176876	884	689
1	94285713	885	848
1	94394447	886	636
1	94503292	887	477
1	94611867	888	371
1	94720698	889	848
1	94829546	890	636
1	94938221	891	424
1	95047064	892	318
1	95155864	893	742
1	95264506	894	689
1	95373257	895	318
1	95482128	896	477
1	95590786	897	424
1	95699679	898	530
1	95808370	899	583
1	95917144	900	689
1	96025939	901	901
1	96134729	902	848
1	96243437	903	530
1	96352248	904	689
1	96461040	905	530
1	96569724	906	636
1	96678654	907	477
1	96787348	908	424
1	96896122	909	636
1	97004901	910	371
1	97113637	911	689
1	97222348	912	477
1	97331191	913	477
1	97439935	914	636
1	97548719	915	742
1	97657448	916	848
1	97766359	917	583
1	97875053	918	318
1	97983790	919	583
1	98092515	920	371
1	98201325	921	583
1	98310127	922	477
1	98418814	923	689
1	98527691	924	742
1	98636456	925	318
1	98745150	926	742
1	98853851	927	424
1	98962784	928	477
1	99071426	929	424
1	99180231	930	477
1	99288945	931	318
1	99397818	932	530
1	99506415	933	530
1	99615295	934	689
1	99723994	935	795
1	99832769	936	742
1	99941605	937	424
1	100050381	938	371
1	100159140	939	795
1	100267990	940	424
1	100376590	941	636
1	100485340	942	636
1	100594179	943	583
1	100702951	944	636
1	100811732	945	530
1	100920526	946	583
1	101029289	947	583
1	101138001	948	530
1	101246922	949	742
1	101355577	950	318
1	101464317	951	636
1	101573122	952	424
1	101681804	953	583
1	101790662	954	583
1	101899353	955	689
1	102008126	956	530
1	102116998	957	530
1	102225787	958	530
1	102334375	959	477
1	102443315	960	742
1	102551955	961	689
1	102660752	962	1007
1	102769604	963	795
1	102878457	964	689
1	102987078	965	318
1	103095852	966	583
1	103204588	967	530
1	103313384	968	424
1	103422145	969	636
1	103530953	970	689
1	103639711	971	318
1	103748396	972	424
1	103857337	973	689
1	103965931	974	636
1	104074814	975	901
1	104183476	976	477
1	104292322	977	265
1	104401056	978	795
1	104509835	979	477
1	104618584	980	477
1	104727306	981	583
1	104836196	982	742
1	104944830	983	318
1	105053650	984	424
1	105162478	985	848
1	105271247	986	583
1	105379924	987	636
1	105488729	988	636
1	105597498	989	636
1	105706271	990	636
1	105815040	991	636
1	105923749	992	318
1	106032481	993	530
1	106141386	994	689
1	106250117	995	689
1	106358890	996	477
1	106467665	997	318
1	106576415	998	636
1	106685242	999	742
2	54476556	519	12429
2	54585173	520	13615
2	54693996	521	13711
2	54802721	522	13689
2	54911650	523	13708
2	55020341	524	13696
2	55129071	525	13681
2	55237843	526	13676
2	55346722	527	13757
2	55455356	528	13597
2	55564180	529	13744
2	55672868	530	13669
2	55781758	531	13686
2	55890432	532	13675
2	55999240	533	13726
2	56108032	534	13673
2	56216753	535	13682
2	56325642	536	13732
2	56434201	537	13588
2	56543135	538	13769
2	56651851	539	13659
2	56760546	540	13659
2	56869360	541	13721
2	56978180	542	13687
2	57086911	543	13725
2	57195707	544	13673
2	57304394	545	13631
2	57413246	546	13751
2	57521953	547	13678
2	57630793	548	13718
2	57739532	549	13666
2	57848392	550	13739
2	57957120	551	13650
2	58065805	552	13687
2	58174615	553	13674
2	58283373	554	13701
2	58392104	555	13695
2	58500883	556	13693
2	58609604	557	13675
2	58718483	558	13724
2	58827240	559	13685
2	58935955	560	13624
2	59044731	561	13737
2	59153596	562	13712
2	59262315	563	13692
2	59370977	564	13653
2	59479830	565	13676
2	59588656	566	13720
2	59697317	567	13642
2	59806181	568	13752
2	59914902	569	13669
2	60023640	570	13661
2	60132503	571	13747
2	60241201	572	13665
2	60350043	573	13680
2	60458841	574	13713
2	60567513	575	13661
2	60676281	576	13718
2	60785156	577	13684
2	60893885	578	13697
2	61002636	579	13690
2	61111407	580	13665
2	61220131	581	13648
2	61328954	582	13708
2	61437593	583	13656
2	61546447	584	13737
2	61655236	585	13718
2	61763955	586	13636
2	61872758	587	13731
2	61981454	588	13658
2	62090338	589	13726
2	62199140	590	13717
2	62307729	591	13633
2	62416598	592	13723
2	62525420	593	13706
2	62634160	594	13689
2	62742918	595	13657
2	62851614	596	13685
2	62960421	597	13712
2	63069249	598	13731
2	63177923	599	13620
2	63286781	600	13761
2	63395643	601	13694
2	63504333	602	13679
2	63613014	603	13613
2	63721842	604	13731
2	63830519	605	13665
2	63939335	606	13730
2	64048155	607	13703
2	64156734	608	13634
2	64265704	609	13738
2	64374334	610	13638
2	64483161	611	13731
2	64591959	612	13700
2	64700725	613	13682
2	64809536	614	13699
2	64918288	615	13692
2	65027034	616	13693
2	65135745	617	13646
2	65244608	618	13773
2	65353302	619	13598
2	65462124	620	13730
2	65570827	621	13651
2	65679671	622	13691
2	65788447	623	13713
2	65897165	624	13663
2	66005976	625	13733
2	66114736	626	13666
2	66223375	627	13670
2	66332188	628	13704
2	66441044	629	13714
2	66549785	630	13682
2	66658549	631	13708
2	66767205	632	13596
2	66876130	633	13759
2	66984895	634	13659
2	67093714	635	13739
2	67202460	636	13662
2	67311255	637	13686
2	67419898	638	13657
2	67528625	639	13675
2	67637473	640	13747
2	67746246	641	13677
2	67855009	642	13681
2	67963849	643	13728
2	68072502	644	13647
2	68181393	645	13715
2	68290088	646	13654
2	68398846	647	13695
2	68507687	648	13732
2	68616440	649	13644
2	68725185	650	13709
2	68833955	651	13713
2	68942730	652	13652
2	69051415	653	13684
2	69160243	654	13685
2	69268992	655	13696
2	69377794	656	13705
2	69486559	657	13670
2	69595357	658	13740
2	69704067	659	13611
2	69812859	660	13739
2	69921551	661	13639
2	70030378	662	13734
2	70139107	663	13697
2	70247927	664	13697
2	70356674	665	13694
2	70465443	666	13708
2	70574177	667	13651
2	70682996	668	13688
2	70791722	669	13697
2	70900578	670	13679
2	71009246	671	13668
2	71118028	672	13707
2	71226838	673	13707
2	71335568	674	13654
2	71444463	675	13753
2	71553099	676	13632
2	71661911	677	13716
2	71770645	678	13674
2	71879416	679	13695
2	71988193	680	13688
2	72096958	681	13703
2	72205699	682	13683
2	72314526	683	13692
2	72423297	684	13715
2	72532074	685	13671
2	72640784	686	13698
2	72749625	687	13681
2	72858401	688	13711
2	72967083	689	13696
2	73075834	690	13654
2	73184664	691	13732
2	73293365	692	13644
2	73402203	693	13732
2	73511061	694	13731
2	73619650	695	13636
2	73728372	696	13641
2	73837334	697	13780
2	73946099	698	13712
2	74054793	699	13630
2	74163564	700	13705
2	74272324	701	13660
2	74380975	702	13703
2	74489811	703	13696
2	74598610	704	13696
2	74707327	705	13691
2	74816137	706	13710
2	74924783	707	13621
2	75033703	708	13785
2	75142475	709	13670
2	75251192	710	13652
2	75359972	711	13721
2	75468728	712	13665
2	75577491	713	13675
2	75686342	714	13725
2	75795039	715	13700
2	75903799	716	13681
2	76012605	717	13701
2	76121393	718	13657
2	76230140	719	13709
2	76338882	720	13678
2	76447748	721	13702
2	76556446	722	13710
2	76665242	723	13696
2	76774059	724	13694
2	76882722	725	13631
2	76991504	726	13698
2	77100303	727	13691
2	77209076	728	13686
2	77317774	729	13695
2	77426651	730	13679
2	77535290	731	13664
2	77644167	732	13729
2	77752955	733	13714
2	77861728	734	13662
2	77970445	735	13727
2	78079166	736	13619
2	78187937	737	13721
2	78296696	738	13667
2	78405544	739	13729
2	78514298	740	13654
2	78623008	741	13665
2	78731811	742	13747
2	78840514	743	13666
2	78949388	744	13729
2	79058103	745	13673
2	79166911	746	13693
2	79275558	747	13641
2	79384457	748	13726
2	79493153	749	13634
2	79601965	750	13750
2	79710748	751	13689
2	79819478	752	13642
2	79928181	753	13681
2	80037083	754	13756
2	80145776	755	13646
2	80254535	756	13703
2	80363313	757	13640
2	80472223	758	13783
2	80580849	759	13653
2	80689584	760	13632
2	80798323	761	13702
2	80907181	762	13730
2	81015937	763	13683
2	81124713	764	13689
2	81233505	765	13727
2	81342309	766	13686
2	81451087	767	13669
2	81559817	768	13696
2	81668620	769	13690
2	81777259	770	13652
2	81885995	771	13693
2	81994902	772	13757
2	82103695	773	13660
2	82212382	774	13685
2	82321232	775	13721
2	82429993	776	13680
2	82538611	777	13619
2	82647423	778	13696
2	82756252	779	13717
2	82865098	780	13736
2	82973856	781	13696
2	83082522	782	13622
2	83191336	783	13726
2	83300032	784	13674
2	83408875	785	13739
2	83517534	786	13653
2	83626420	787	13733
2	83735103	788	13653
2	83843865	789	13676
2	83952680	790	13729
2	84061507	791	13701
2	84170190	792	13671
2	84278950	793	13682
2	84387714	794	13674
2	84496464	795	13703
2	84605238	796	13683
2	84714082	797	13723
2	84822875	798	13687
2	84931627	799	13699
2	85040437	800	13692
2	85149148	801	13658
2	85257803	802	13643
2	85366712	803	13781
2	85475414	804	13664
2	85584268	805	13729
2	85692963	806	13668
2	85801669	807	13669
2	85910535	808	13738
2	86019250	809	13648
2	86128076	810	13678
2	86236798	811	13708
2	86345591	812	13678
2	86454355	813	13707
2	86563199	814	13718
2	86672003	815	13703
2	86780634	816	13615
2	86889449	817	13717
2	86998220	818	13670
2	87106983	819	13717
2	87215750	820	13678
2	87324483	821	13666
2	87433294	822	13714
2	87541998	823	13684
2	87650837	824	13710
2	87759551	825	13679
2	87868380	826	13721
2	87977120	827	13629
2	88085784	828	13690
2	88194618	829	13716
2	88303481	830	13734
2	88412024	831	13613
2	88520859	832	13688
2	88629745	833	13711
2	88738574	834	13711
2	88847212	835	13654
2	88956013	836	13670
2	89064776	837	13729
2	89173471	838	13657
2	89282359	839	13721
2	89391230	840	13726
2	89499891	841	13637
2	89608611	842	13679
2	89717460	843	13736
2	89826147	844	13665
2	89934916	845	13687
2	90043624	846	13667
2	90152531	847	13715
2	90261255	848	13702
2	90369988	849	13675
2	90478743	850	13706
2	90587496	851	13652
2	90696310	852	13738
2	90805050	853	13678
2	90913916	854	13698
2	91022597	855	13655
2	91131373	856	13690
2	91240097	857	13699
2	91348896	858	13678
2	91457573	859	13660
2	91566455	860	13736
2	91675185	861	13681
2	91783976	862	13708
2	91892735	863	13685
2	92001595	864	13710
2	92110270	865	13689
2	92219018	866	13687
2	92327803	867	13653
2	92436644	868	13709
2	92545311	869	13669
2	92654113	870	13717
2	92762935	871	13704
2	92871674	872	13699
2	92980285	873	13608
2	93089157	874	13699
2	93197963	875	13725
2	93306835	876	13773
2	93415587	877	13648
2	93524274	878	13655
2	93632972	879	13701
2	93741881	880	13692
2	93850619	881	13706
2	93959352	882	13669
2	94068245	883	13708
2	94176876	884	13681
2	94285713	885	13712
2	94394447	886	13606
2	94503292	887	13776
2	94611867	888	13629
2	94720698	889	13668
2	94829546	890	13743
2	94938221	891	13676
2	95047064	892	13704
2	95155864	893	13674
2	95264506	894	13655
2	95373257	895	13691
2	95482128	896	13768
2	95590786	897	13618
2	95699679	898	13741
2	95808370	899	13663
2	95917144	900	13710
2	96025939	901	13683
2	96134729	902	13693
2	96243437	903	13697
2	96352248	904	13667
2	96461040	905	13718
2	96569724	906	13670
2	96678654	907	13710
2	96787348	908	13672
2	96896122	909	13709
2	97004901	910	13672
2	97113637	911	13711
2	97222348	912	13670
2	97331191	913	13677
2	97439935	914	13697
2	97548719	915	13696
2	97657448	916	13680
2	97766359	917	13761
2	97875053	918	13672
2	97983790	919	13645
2	98092515	920	13662
2	98201325	921	13742
2	98310127	922	13688
2	98418814	923	13667
2	98527691	924	13744
2	98636456	925	13692
2	98745150	926	13630
2	98853851	927	13698
2	98962784	928	13704
2	99071426	929	13661
2	99180231	930	13699
2	99288945	931	13695
2	99397818	932	13736
2	99506415	933	13655
2	99615295	934	13721
2	99723994	935	13655
2	99832769	936	13711
2	99941605	937	13684
2	100050381	938	13728
2	100159140	939	13667
2	100267990	940	13721
2	100376590	941	13604
2	100485340	942	13703
2	100594179	943	13729
2	100702951	944	13693
2	100811732	945	13675
2	100920526	946	13708
2	101029289	947	13699
2	101138001	948	13660
2	101246922	949	13740
2	101355577	950	13670
2	101464317	951	13671
2	101573122	952	13688
2	101681804	953	13666
2	101790662	954	13745
2	101899353	955	13661
2	102008126	956	13695
2	102116998	957	13710
2	102225787	958	13716
2	102334375	959	13619
2	102443315	960	13714
2	102551955	961	13661
2	102660752	962	13719
2	102769604	963	13700
2	102878457	964	13703
2	102987078	965	13664
2	103095852	966	13664
2	103204588	967	13691
2	103313384	968	13705
2	103422145	969	13710
2	103530953	970	13706
2	103639711	971	13671
2	103748396	972	13702
2	103857337	973	13732
2	103965931	974	13628
2	104074814	975	13705
2	104183476	976	13645
2	104292322	977	13748
2	104401056	978	13659
2	104509835	979	13684
2	104618584	980	13722
2	104727306	981	13656
2	104836196	982	13720
2	104944830	983	13630
2	105053650	984	13753
2	105162478	985	13701
2	105271247	986	13690
2	105379924	987	13668
2	105488729	988	13676
2	105597498	989	13693
2	105706271	990	13734
2	105815040	991	13658
2	105923749	992	13669
2	106032481	993	13697
2	106141386	994	13717
2	106250117	995	13653
2	106358890	996	13722
2	106467665	997	13676
2	106576415	998	13715
2	106685242	999	13698
3	54476556	519	0
3	54585173	520	0
3	54693996	521	0
3	54802721	522	0
3	54911650	523	0
3	55020341	524	0
3	55129071	525	0
3	55237843	526	0
3	55346722	527	0
3	55455356	528	0
3	55564180	529	0
3	55672868	530	0
3	55781758	531	0
3	55890432	532	0
3	55999240	533	0
3	56108032	534	0
3	56216753	535	0
3	56325642	536	0
3	56434201	537	0
3	56543135	538	0
3	56651851	539	0
3	56760546	540	0
3	56869360	541	0
3	56978180	542	0
3	57086911	543	0
3	57195707	544	0
3	57304394	545	0
3	57413246	546	0
3	57521953	547	0
3	57630793	548	0
3	57739532	549	0
3	57848392	550	0
3	57957120	551	0
3	58065805	552	0
3	58174615	553	0
3	58283373	554	0
3	58392104	555	0
3	58500883	556	0
3	58609604	557	0
3	58718483	558	0
3	58827240	559	0
3	58935955	560	0
3	59044731	561	0
3	59153596	562	0
3	59262315	563	0
3	59370977	564	0
3	59479830	565	0
3	59588656	566	0
3	59697317	567	0
3	59806181	568	0
3	59914902	569	0
3	60023640	570	0
3	60132503	571	0
3	60241201	572	0
3	60350043	573	0
3	60458841	574	0
3	60567513	575	0
3	60676281	576	0
3	60785156	577	0
3	60893885	578	0
3	61002636	579	0
3	61111407	580	0
3	61220131	581	0
3	61328954	582	0
3	61437593	583	0
3	61546447	584	0
3	61655236	585	0
3	61763955	586	0
3	61872758	587	0
3	61981454	588	0
3	62090338	589	0
3	62199140	590	0
3	62307729	591	0
3	62416598	592	0
3	62525420	593	0
3	62634160	594	0
3	62742918	595	0
3	62851614	596	0
3	62960421	597	0
3	63069249	598	0
3	63177923	599	0
3	63286781	600	0
3	63395643	601	0
3	63504333	602	0
3	63613014	603	0
3	63721842	604	0
3	63830519	605	0
3	63939335	606	0
3	64048155	607	0
3	64156734	608	0
3	64265704	609	0
3	64374334	610	0
3	64483161	611	0
3	64591959	612	0
3	64700725	613	0
3	64809536	614	0
3	64918288	615	0
3	65027034	616	0
3	65135745	617	0
3	65244608	618	0
3	65353302	619	0
3	65462124	620	0
3	65570827	621	0
3	65679671	622	0
3	65788447	623	0
3	65897165	624	0
3	66005976	625	0
3	66114736	626	0
3	66223375	627	0
3	66332188	628	0
3	66441044	629	0
3	66549785	630	0
3	66658549	631	0
3	66767205	632	0
3	66876130	633	0
3	66984895	634	0
3	67093714	635	0
3	67202460	636	0
3	67311255	637	0
3	67419898	638	0
3	67528625	639	0
3	67637473	640	0
3	67746246	641	0
3	67855009	642	0
3	67963849	643	0
3	68072502	644	0
3	68181393	645	0
3	68290088	646	0
3	68398846	647	0
3	68507687	648	0
3	68616440	649	0
3	68725185	650	0
3	68833955	651	0
3	68942730	652	0
3	69051415	653	0
3	69160243	654	0
3	69268992	655	0
3	69377794	656	0
3	69486559	657	0
3	69595357	658	0
3	69704067	659	0
3	69812859	660	0
3	69921551	661	0
3	70030378	662	0
3	70139107	663	0
3	70247927	664	0
3	70356674	665	0
3	70465443	666	0
3	70574177	667	0
3	70682996	668	0
3	70791722	669	0
3	70900578	670	0
3	71009246	671	0
3	71118028	672	0
3	71226838	673	0
3	71335568	674	0
3	71444463	675	0
3	71553099	676	0
3	71661911	677	0
3	71770645	678	0
3	71879416	679	0
3	71988193	680	0
3	72096958	681	0
3	72205699	682	0
3	72314526	683	0
3	72423297	684	0
3	72532074	685	0
3	72640784	686	0
3	72749625	687	0
3	72858401	688	0
3	72967083	689	0
3	73075834	690	0
3	73184664	691	0
3	73293365	692	0
3	73402203	693	0
3	73511061	694	0
3	73619650	695	0
3	73728372	696	0
3	73837334	697	0
3	73946099	698	0
3	74054793	699	0
3	74163564	700	0
3	74272324	701	0
3	74380975	702	0
3	74489811	703	0
3	74598610	704	0
3	74707327	705	0
3	74816137	706	0
3	74924783	707	0
3	75033703	708	0
3	75142475	709	0
3	75251192	710	0
3	75359972	711	0
3	75468728	712	0
3	75577491	713	0
3	75686342	714	0
3	75795039	715	0
3	75903799	716	0
3	76012605	717	0
3	76121393	718	0
3	76230140	719	0
3	76338882	720	0
3	76447748	721	0
3	76556446	722	0
3	76665242	723	0
3	76774059	724	0
3	76882722	725	0
3	76991504	726	0
3	77100303	727	0
3	77209076	728	0
3	77317774	729	0
3	77426651	730	0
3	77535290	731	0
3	77644167	732	0
3	77752955	733	0
3	77861728	734	0
3	77970445	735	0
3	78079166	736	0
3	78187937	737	0
3	78296696	738	0
3	78405544	739	0
3	78514298	740	0
3	78623008	741	0
3	78731811	742	0
3	78840514	743	0
3	78949388	744	0
3	79058103	745	0
3	79166911	746	0
3	79275558	747	0
3	79384457	748	0
3	79493153	749	0
3	79601965	750	0
3	79710748	751	0
3	79819478	752	0
3	79928181	753	0
3	80037083	754	0
3	80145776	755	0
3	80254535	756	0
3	80363313	757	0
3	80472223	758	0
3	80580849	759	0
3	80689584	760	0
3	80798323	761	0
3	80907181	762	0
3	81015937	763	0
3	81124713	764	0
3	81233505	765	0
3	81342309	766	0
3	81451087	767	0
3	81559817	768	0
3	81668620	769	0
3	81777259	770	0
3	81885995	771	0
3	81994902	772	0
3	82103695	773	0
3	82212382	774	0
3	82321232	775	0
3	82429993	776	0
3	82538611	777	0
3	82647423	778	0
3	82756252	779	0
3	82865098	780	0
3	82973856	781	0
3	83082522	782	0
3	83191336	783	0
3	83300032	784	0
3	83408875	785	0
3	83517534	786	0
3	83626420	787	0
3	83735103	788	0
3	83843865	789	0
3	83952680	790	0
3	84061507	791	0
3	84170190	792	0
3	84278950	793	0
3	84387714	794	0
3	84496464	795	0
3	84605238	796	0
3	84714082	797	0
3	84822875	798	0
3	84931627	799	0
3	85040437	800	0
3	85149148	801	0
3	85257803	802	0
3	85366712	803	0
3	85475414	804	0
3	85584268	805	0
3	85692963	806	0
3	85801669	807	0
3	85910535	808	0
3	86019250	809	0
3	86128076	810	0
3	86236798	811	0
3	86345591	812	0
3	86454355	813	0
3	86563199	814	0
3	86672003	815	0
3	86780634	816	0
3	86889449	817	0
3	86998220	818	0
3	87106983	819	0
3	87215750	820	0
3	87324483	821	0
3	87433294	822	0
3	87541998	823	0
3	87650837	824	0
3	87759551	825	0
3	87868380	826	0
3	87977120	827	0
3	88085784	828	0
3	88194618	829	0
3	88303481	830	0
3	88412024	831	0
3	88520859	832	0
3	88629745	833	0
3	88738574	834	0
3	88847212	835	0
3	88956013	836	0
3	89064776	837	0
3	89173471	838	0
3	89282359	839	0
3	89391230	840	0
3	89499891	841	0
3	89608611	842	0
3	89717460	843	0
3	89826147	844	0
3	89934916	845	0
3	90043624	846	0
3	90152531	847	0
3	90261255	848	0
3	90369988	849	0
3	90478743	850	0
3	90587496	851	0
3	90696310	852	0
3	90805050	853	0
3	90913916	854	0
3	91022597	855	0
3	91131373	856	0
3	91240097	857	0
3	91348896	858	0
3	91457573	859	0
3	91566455	860	0
3	91675185	861	0
3	91783976	862	0
3	91892735	863	0
3	92001595	864	0
3	92110270	865	0
3	92219018	866	0
3	92327803	867	0
3	92436644	868	0
3	92545311	869	0
3	92654113	870	0
3	92762935	871	0
3	92871674	872	0
3	92980285	873	0
3	93089157	874	0
3	93197963	875	0
3	93306835	876	0
3	93415587	877	0
3	93524274	878	0
3	93632972	879	0
3	93741881	880	0
3	93850619	881	0
3	93959352	882	0
3	94068245	883	0
3	94176876	884	0
3	94285713	885	0
3	94394447	886	0
3	94503292	887	0
3	94611867	888	0
3	94720698	889	0
3	94829546	890	0
3	94938221	891	0
3	95047064	892	0
3	95155864	893	0
3	95264506	894	0
3	95373257	895	0
3	95482128	896	0
3	95590786	897	0
3	95699679	898	0
3	95808370	899	0
3	95917144	900	0
3	96025939	901	0
3	96134729	902	0
3	96243437	903	0
3	96352248	904	0
3	96461040	905	0
3	96569724	906	0
3	96678654	907	0
3	96787348	908	0
3	96896122	909	0
3	97004901	910	0
3	97113637	911	0
3	97222348	912	0
3	97331191	913	0
3	97439935	914	0
3	97548719	915	0
3	97657448	916	0
3	97766359	917	0
3	97875053	918	0
3	97983790	919	0
3	98092515	920	0
3	98201325	921	0
3	98310127	922	0
3	98418814	923	0
3	98527691	924	0
3	98636456	925	0
3	98745150	926	0
3	98853851	927	0
3	98962784	928	0
3	99071426	929	0
3	99180231	930	0
3	99288945	931	0
3	99397818	932	0
3	99506415	933	0
3	99615295	934	0
3	99723994	935	0
3	99832769	936	0
3	99941605	937	0
3	100050381	938	0
3	100159140	939	0
3	100267990	940	0
3	100376590	941	0
3	100485340	942	0
3	100594179	943	0
3	100702951	944	0
3	100811732	945	0
3	100920526	946	0
3	101029289	947	0
3	101138001	948	0
3	101246922	949	0
3	101355577	950	0
3	101464317	951	0
3	101573122	952	0
3	101681804	953	0
3	101790662	954	0
3	101899353	955	0
3	102008126	956	0
3	102116998	957	0
3	102225787	958	0
3	102334375	959	0
3	102443315	960	0
3	102551955	961	0
3	102660752	962	0
3	102769604	963	0
3	102878457	964	0
3	102987078	965	0
3	103095852	966	0
3	103204588	967	0
3	103313384	968	0
3	103422145	969	0
3	103530953	970	0
3	103639711	971	0
3	103748396	972	0
3	103857337	973	0
3	103965931	974	0
3	104074814	975	0
3	104183476	976	0
3	104292322	977	0
3	104401056	978	0
3	104509835	979	0
3	104618584	980	0
3	104727306	981	0
3	104836196	982	0
3	104944830	983	0
3	105053650	984	0
3	105162478	985	0
3	105271247	986	0
3	105379924	987	0
3	105488729	988	0
3	105597498	989	0
3	105706271	990	0
3	105815040	991	0
3	105923749	992	0
3	106032481	993	0
3	106141386	994	0