version 2
run BasicCC-1-20100909-21:34:14-388
attr configname BasicCC
attr datetime 20100909-21:34:14
attr experiment BasicCC
attr inifile D:/Developement/Oversim2/multic/simulations/omnetpp.ini
attr iterationvars $rateIncoming=300000
attr iterationvars2 "$rateIncoming=300000, $repetition=0"
attr measurement $rateIncoming=300000
attr network oversim.underlay.simpleunderlay.SimpleUnderlayNetwork
attr processid 388
attr rateIncoming 300000
attr repetition 0
attr replication #0
attr resultdir results
attr runnumber 1
attr seedset 1

vector 1  SimpleUnderlayNetwork.globalObserver.globalStatistics  incoming_bytes  ETV
vector 2  SimpleUnderlayNetwork.globalObserver.globalStatistics  drops  ETV
vector 3  SimpleUnderlayNetwork.globalObserver.globalStatistics  delayed_acks  ETV
vector 4  SimpleUnderlayNetwork.globalObserver.globalStatistics  "GlobalNodeList: Number of nodes"  ETV
vector 5  SimpleUnderlayNetwork.globalObserver.globalStatistics  "GlobalNodeList: Number of bootstrapped malicious nodes"  ETV
1	55149308	520	1643
1	55259512	521	1431
1	55369722	522	1537
1	55479789	523	1855
1	55589906	524	1855
1	55700071	525	2067
1	55810162	526	1484
1	55920327	527	1537
1	56030344	528	1749
1	56140595	529	1908
1	56250731	530	1643
1	56360734	531	1590
1	56470826	532	1431
1	56580966	533	1166
1	56691227	534	1696
1	56801301	535	1961
1	56911436	536	2173
1	57021534	537	1431
1	57131744	538	1643
1	57241773	539	2067
1	57351820	540	1643
1	57462090	541	2014
1	57572208	542	1590
1	57682374	543	1802
1	57792464	544	1590
1	57902638	545	2120
1	58012809	546	1590
1	58122955	547	2014
1	58233039	548	1590
1	58343103	549	1537
1	58453272	550	1325
1	58563407	551	1908
1	58673511	552	1908
1	58783612	553	2120
1	58893753	554	1643
1	59003950	555	2544
1	59114120	556	1696
1	59224074	557	1802
1	59334371	558	1749
1	59444430	559	1961
1	59554536	560	2279
1	59664714	561	1696
1	59774909	562	1378
1	59885011	563	1802
1	59995080	564	1749
1	60105228	565	2332
1	60215421	566	1643
1	60325497	567	1537
1	60435693	568	1749
1	60545779	569	1961
1	60655896	570	2226
1	60766161	571	2120
1	60876192	572	2279
1	60986297	573	1855
1	61096376	574	1696
1	61206556	575	1908
1	61316730	576	1378
1	61426869	577	1855
1	61536916	578	1537
1	61647026	579	1590
1	61757210	580	1855
1	61867435	581	1643
1	61977472	582	1484
1	62087573	583	1855
1	62197797	584	2120
1	62307899	585	1378
1	62417971	586	1908
1	62528132	587	1378
1	62638379	588	1802
1	62748394	589	1166
1	62858432	590	1484
1	62968640	591	1961
1	63078776	592	1855
1	63188768	593	1961
1	63298928	594	1537
1	63409092	595	1802
1	63519293	596	1696
1	63629461	597	1961
1	63739462	598	1378
1	63849609	599	1590
1	63959757	600	1484
1	64069932	601	1908
1	64179999	602	1855
1	64290215	603	1802
1	64400269	604	1484
1	64510479	605	1219
1	64620610	606	1643
1	64730577	607	1537
1	64840709	608	1590
1	64950880	609	1908
1	65061067	610	2014
1	65171299	611	1961
1	65281270	612	1643
1	65391548	613	1378
1	65501638	614	1749
1	65611709	615	2173
1	65721912	616	1855
1	65832023	617	2173
1	65942139	618	1802
1	66052348	619	1643
1	66162472	620	1908
1	66272461	621	1749
1	66382723	622	2067
1	66492727	623	2226
1	66602955	624	1855
1	66713049	625	1802
1	66823229	626	1590
1	66933366	627	1802
1	67043376	628	1537
1	67153553	629	1961
1	67263648	630	1219
1	67373875	631	1537
1	67483926	632	2279
1	67594091	633	1431
1	67704233	634	1643
1	67814265	635	1961
1	67924579	636	2279
1	68034593	637	1484
1	68144693	638	1590
1	68254899	639	2014
1	68365027	640	1802
1	68475171	641	1537
1	68585210	642	1325
1	68695433	643	1961
1	68805492	644	1378
1	68915719	645	1961
1	69025849	646	1272
1	69135930	647	1590
1	69245978	648	2014
1	69356134	649	1908
1	69466355	650	1696
1	69576489	651	1749
1	69686481	652	2703
1	69796750	653	2332
1	69906861	654	1643
1	70017015	655	2226
1	70127014	656	1643
1	70237201	657	1431
1	70347389	658	1908
1	70457389	659	1749
1	70567731	660	1908
1	70677801	661	1802
1	70787919	662	1802
1	70898066	663	1855
1	71008162	664	1696
1	71118262	665	1696
1	71228361	666	2544
1	71338541	667	1908
1	71448751	668	1643
1	71558812	669	1855
1	71668973	670	1643
1	71779047	671	2332
1	71889155	672	1484
1	71999303	673	1749
1	72109411	674	1537
1	72219584	675	1696
1	72329696	676	2120
1	72439757	677	1643
1	72549907	678	1696
1	72660135	679	2120
1	72770262	680	1643
1	72880370	681	1749
1	72990489	682	1855
1	73100662	683	2120
1	73210811	684	1537
1	73320883	685	1802
1	73431109	686	2226
1	73541212	687	1590
1	73651315	688	1590
1	73761498	689	2067
1	73871552	690	1113
1	73981749	691	1749
1	74091875	692	2173
1	74201920	693	1802
1	74312139	694	1908
1	74422211	695	1908
1	74532230	696	1855
1	74642407	697	1272
1	74752529	698	1908
1	74862759	699	1590
1	74972825	700	1802
1	75082928	701	1643
1	75193134	702	2067
1	75303245	703	2120
1	75413302	704	1325
1	75523451	705	1431
1	75633583	706	1484
1	75743781	707	1378
1	75853865	708	2120
1	75964104	709	1537
1	76074148	710	1431
1	76184181	711	1961
1	76294384	712	1749
1	76404508	713	1590
1	76514631	714	1961
1	76624862	715	1749
1	76734955	716	1431
1	76845015	717	2067
1	76955227	718	1749
1	77065278	719	1431
1	77175481	720	1961
1	77285561	721	1643
1	77395760	722	2014
1	77505796	723	1537
1	77615953	724	1431
1	77726088	725	1537
1	77836195	726	1484
1	77946247	727	1961
1	78056493	728	1802
1	78166680	729	1537
1	78276650	730	1749
1	78386832	731	1378
1	78497006	732	1749
1	78607080	733	1431
1	78717215	734	1855
1	78827388	735	1749
1	78937497	736	2226
1	79047706	737	2014
1	79157698	738	1696
1	79267857	739	1749
1	79377899	740	1961
1	79488208	741	1484
1	79598332	742	1961
1	79708367	743	2014
1	79818586	744	1802
1	79928640	745	1537
1	80038794	746	2067
1	80148940	747	1696
1	80259107	748	1484
1	80369176	749	1749
1	80479273	750	1325
1	80589459	751	1219
1	80699679	752	1484
1	80809600	753	1855
1	80919790	754	1643
1	81029952	755	1590
1	81140044	756	1484
1	81250173	757	1431
1	81360306	758	1696
1	81470399	759	2120
1	81580617	760	1643
1	81690674	761	1484
1	81800896	762	1749
1	81910881	763	1855
1	82021169	764	1749
1	82131222	765	1325
1	82241337	766	1749
1	82351457	767	1378
1	82461678	768	1749
1	82571669	769	1431
1	82681906	770	1590
1	82792006	771	1802
1	82902219	772	1537
1	83012118	773	1643
1	83122355	774	1749
1	83232418	775	1643
1	83342680	776	1643
1	83452727	777	1431
1	83562940	778	1325
1	83672917	779	1802
1	83783186	780	1749
1	83893236	781	1643
1	84003331	782	1643
1	84113559	783	1643
1	84223648	784	1696
1	84333783	785	1484
1	84443804	786	1643
1	84554028	787	1855
1	84664171	788	1802
1	84774360	789	1378
1	84884449	790	1643
1	84994472	791	1431
1	85104631	792	1855
1	85214789	793	2438
1	85325056	794	1431
1	85435039	795	1590
1	85545145	796	1696
1	85655294	797	1431
1	85765572	798	1537
1	85875499	799	1537
1	85985739	800	1749
1	86095792	801	2067
1	86206007	802	1643
1	86316097	803	1696
1	86426217	804	1060
1	86536284	805	1643
1	86646487	806	1537
1	86756550	807	2544
1	86866787	808	1855
1	86976879	809	1802
1	87087010	810	1802
1	87197143	811	1537
1	87307261	812	2385
1	87417427	813	1325
1	87527512	814	1908
1	87637599	815	1855
1	87747767	816	1325
1	87857922	817	2067
1	87968054	818	2438
1	88078182	819	1590
1	88188245	820	1378
1	88298424	821	1802
1	88408501	822	1643
1	88518669	823	1855
1	88628783	824	1855
1	88738880	825	1961
1	88849129	826	1749
1	88959113	827	1325
1	89069320	828	1431
1	89179495	829	2067
1	89289626	830	1802
1	89399738	831	2067
1	89509912	832	1908
1	89620011	833	1537
1	89730083	834	2279
1	89840328	835	1802
1	89950493	836	2385
1	90060449	837	1537
1	90170686	838	1908
1	90280773	839	1484
1	90390939	840	1537
1	90501085	841	1537
1	90611184	842	1802
1	90721358	843	2385
1	90831419	844	1378
1	90941545	845	1431
1	91051693	846	1855
1	91161856	847	1590
1	91271851	848	1961
1	91382138	849	2120
1	91492202	850	1961
1	91602321	851	1855
1	91712436	852	1855
1	91822636	853	1749
1	91932791	854	1590
1	92042846	855	1431
1	92153014	856	1325
1	92263102	857	1855
1	92373224	858	1378
1	92483325	859	1908
1	92593479	860	1272
1	92703727	861	2120
1	92813739	862	1802
1	92923919	863	1590
1	93033946	864	1378
1	93144210	865	1484
1	93254301	866	1325
1	93364367	867	1643
1	93474566	868	2173
1	93584695	869	2014
1	93694819	870	1696
1	93804914	871	1484
1	93915036	872	2014
1	94025161	873	2067
1	94135286	874	1537
1	94245398	875	1855
1	94355575	876	2120
1	94465698	877	1908
1	94575774	878	1855
1	94685885	879	1749
1	94796179	880	1961
1	94906206	881	1484
1	95016443	882	1378
1	95126497	883	1908
1	95236592	884	1855
1	95346787	885	1749
1	95456895	886	1961
1	95566941	887	1219
1	95677163	888	1855
1	95787266	889	2279
1	95897447	890	1855
1	96007527	891	2279
1	96117685	892	1961
1	96227800	893	1431
1	96337890	894	1696
1	96448097	895	1855
1	96558290	896	1537
1	96668379	897	1696
1	96778468	898	1590
1	96888507	899	1643
1	96998698	900	1590
1	97108923	901	1908
1	97219007	902	1643
1	97329084	903	1484
1	97439117	904	1219
1	97549303	905	2067
1	97659427	906	1590
1	97769623	907	2120
1	97879651	908	1802
1	97989761	909	1590
1	98099940	910	1696
1	98210110	911	1325
1	98320287	912	1802
1	98430434	913	1802
1	98540542	914	1961
1	98650622	915	2014
1	98760722	916	1325
1	98870801	917	1749
1	98981057	918	1431
1	99091184	919	1272
1	99201230	920	1961
1	99311366	921	1537
1	99421652	922	2067
1	99531544	923	1484
1	99641921	924	1961
1	99752008	925	1484
1	99862017	926	1378
1	99972149	927	1802
1	100082320	928	1696
1	100192436	929	1908
1	100302575	930	2014
1	100412736	931	1908
1	100522793	932	1802
1	100632917	933	1378
1	100743184	934	1696
1	100853240	935	2279
1	100963405	936	1590
1	101073350	937	1537
1	101183614	938	2226
1	101293837	939	1643
1	101403840	940	1431
1	101513962	941	1590
1	101624123	942	1431
1	101734305	943	1219
1	101844408	944	2014
1	101954538	945	1696
1	102064692	946	1855
1	102174708	947	1908
1	102284893	948	1325
1	102395026	949	1696
1	102505191	950	1537
1	102615264	951	1590
1	102725434	952	1749
1	102835487	953	1855
1	102945587	954	1272
1	103055781	955	2014
1	103165874	956	2385
1	103275999	957	2014
1	103386171	958	2226
1	103496260	959	1696
1	103606477	960	1431
1	103716635	961	1961
1	103826686	962	2120
1	103936892	963	1961
1	104046970	964	2173
1	104157183	965	1484
1	104267219	966	1166
1	104377363	967	1696
1	104487559	968	1802
1	104597603	969	1802
1	104707806	970	2279
1	104817900	971	2067
1	104928067	972	1855
1	105038286	973	1378
1	105148321	974	1696
1	105258474	975	1484
1	105368546	976	1166
1	105478687	977	1166
1	105588819	978	1378
1	105698927	979	1749
1	105809090	980	1749
1	105919124	981	1855
1	106029402	982	1908
1	106139427	983	1802
1	106249526	984	1590
1	106359679	985	1643
1	106469862	986	1484
1	106579930	987	1696
1	106689993	988	1431
1	106800245	989	1378
1	106910415	990	2067
1	107020501	991	1431
1	107130422	992	1378
1	107240693	993	2067
1	107350719	994	1590
1	107460995	995	1696
1	107571087	996	1590
1	107681192	997	1855
1	107791421	998	2385
1	107901595	999	1484
2	55149308	520	9615
2	55259512	521	12387
2	55369722	522	12353
2	55479789	523	12280
2	55589906	524	12330
2	55700071	525	12347
2	55810162	526	12298
2	55920327	527	12375
2	56030344	528	12246
2	56140595	529	12408
2	56250731	530	12347
2	56360734	531	12239
2	56470826	532	12342
2	56580966	533	12346
2	56691227	534	12377
2	56801301	535	12303
2	56911436	536	12333
2	57021534	537	12351
2	57131744	538	12332
2	57241773	539	12304
2	57351820	540	12267
2	57462090	541	12380
2	57572208	542	12344
2	57682374	543	12331
2	57792464	544	12317
2	57902638	545	12354
2	58012809	546	12329
2	58122955	547	12321
2	58233039	548	12297
2	58343103	549	12322
2	58453272	550	12380
2	58563407	551	12291
2	58673511	552	12312
2	58783612	553	12318
2	58893753	554	12342
2	59003950	555	12372
2	59114120	556	12282
2	59224074	557	12301
2	59334371	558	12383
2	59444430	559	12267
2	59554536	560	12311
2	59664714	561	12331
2	59774909	562	12410
2	59885011	563	12288
2	59995080	564	12326
2	60105228	565	12292
2	60215421	566	12368
2	60325497	567	12307
2	60435693	568	12334
2	60545779	569	12391
2	60655896	570	12284
2	60766161	571	12319
2	60876192	572	12299
2	60986297	573	12266
2	61096376	574	12316
2	61206556	575	12396
2	61316730	576	12371
2	61426869	577	12283
2	61536916	578	12394
2	61647026	579	12282
2	61757210	580	12298
2	61867435	581	12396
2	61977472	582	12310
2	62087573	583	12279
2	62197797	584	12394
2	62307899	585	12263
2	62417971	586	12362
2	62528132	587	12343
2	62638379	588	12331
2	62748394	589	12329
2	62858432	590	12331
2	62968640	591	12340
2	63078776	592	12298
2	63188768	593	12281
2	63298928	594	12319
2	63409092	595	12387
2	63519293	596	12324
2	63629461	597	12362
2	63739462	598	12292
2	63849609	599	12363
2	63959757	600	12302
2	64069932	601	12400
2	64179999	602	12239
2	64290215	603	12341
2	64400269	604	12293
2	64510479	605	12402
2	64620610	606	12318
2	64730577	607	12275
2	64840709	608	12408
2	64950880	609	12284
2	65061067	610	12355
2	65171299	611	12371
2	65281270	612	12283
2	65391548	613	12363
2	65501638	614	12318
2	65611709	615	12273
2	65721912	616	12366
2	65832023	617	12294
2	65942139	618	12342
2	66052348	619	12375
2	66162472	620	12317
2	66272461	621	12301
2	66382723	622	12352
2	66492727	623	12239
2	66602955	624	12404
2	66713049	625	12292
2	66823229	626	12306
2	66933366	627	12366
2	67043376	628	12310
2	67153553	629	12285
2	67263648	630	12345
2	67373875	631	12402
2	67483926	632	12300
2	67594091	633	12347
2	67704233	634	12313
2	67814265	635	12268
2	67924579	636	12384
2	68034593	637	12315
2	68144693	638	12305
2	68254899	639	12387
2	68365027	640	12291
2	68475171	641	12333
2	68585210	642	12326
2	68695433	643	12361
2	68805492	644	12295
2	68915719	645	12354
2	69025849	646	12352
2	69135930	647	12273
2	69245978	648	12329
2	69356134	649	12305
2	69466355	650	12416
2	69576489	651	12294
2	69686481	652	12265
2	69796750	653	12391
2	69906861	654	12287
2	70017015	655	12337
2	70127014	656	12283
2	70237201	657	12340
2	70347389	658	12363
2	70457389	659	12279
2	70567731	660	12434
2	70677801	661	12238
2	70787919	662	12350
2	70898066	663	12344
2	71008162	664	12302
2	71118262	665	12332
2	71228361	666	12329
2	71338541	667	12311
2	71448751	668	12327
2	71558812	669	12337
2	71668973	670	12324
2	71779047	671	12307
2	71889155	672	12353
2	71999303	673	12307
2	72109411	674	12321
2	72219584	675	12351
2	72329696	676	12298
2	72439757	677	12323
2	72549907	678	12332
2	72660135	679	12338
2	72770262	680	12344
2	72880370	681	12305
2	72990489	682	12330
2	73100662	683	12337
2	73210811	684	12366
2	73320883	685	12305
2	73431109	686	12338
2	73541212	687	12334
2	73651315	688	12325
2	73761498	689	12315
2	73871552	690	12332
2	73981749	691	12330
2	74091875	692	12351
2	74201920	693	12272
2	74312139	694	12362
2	74422211	695	12300
2	74532230	696	12259
2	74642407	697	12392
2	74752529	698	12331
2	74862759	699	12378
2	74972825	700	12282
2	75082928	701	12290
2	75193134	702	12378
2	75303245	703	12290
2	75413302	704	12315
2	75523451	705	12327
2	75633583	706	12362
2	75743781	707	12366
2	75853865	708	12299
2	75964104	709	12363
2	76074148	710	12334
2	76184181	711	12278
2	76294384	712	12348
2	76404508	713	12359
2	76514631	714	12305
2	76624862	715	12395
2	76734955	716	12285
2	76845015	717	12278
2	76955227	718	12372
2	77065278	719	12351
2	77175481	720	12324
2	77285561	721	12315
2	77395760	722	12338
2	77505796	723	12305
2	77615953	724	12328
2	77726088	725	12336
2	77836195	726	12327
2	77946247	727	12274
2	78056493	728	12390
2	78166680	729	12307
2	78276650	730	12311
2	78386832	731	12397
2	78497006	732	12326
2	78607080	733	12342
2	78717215	734	12273
2	78827388	735	12342
2	78937497	736	12322
2	79047706	737	12346
2	79157698	738	12274
2	79267857	739	12323
2	79377899	740	12324
2	79488208	741	12401
2	79598332	742	12319
2	79708367	743	12274
2	79818586	744	12380
2	79928640	745	12311
2	80038794	746	12278
2	80148940	747	12369
2	80259107	748	12375
2	80369176	749	12240
2	80479273	750	12383
2	80589459	751	12323
2	80699679	752	12380
2	80809600	753	12276
2	80919790	754	12346
2	81029952	755	12285
2	81140044	756	12360
2	81250173	757	12359
2	81360306	758	12350
2	81470399	759	12284
2	81580617	760	12360
2	81690674	761	12330
2	81800896	762	12338
2	81910881	763	12236
2	82021169	764	12435
2	82131222	765	12306
2	82241337	766	12310
2	82351457	767	12318
2	82461678	768	12375
2	82571669	769	12272
2	82681906	770	12402
2	82792006	771	12349
2	82902219	772	12299
2	83012118	773	12260
2	83122355	774	12395
2	83232418	775	12260
2	83342680	776	12395
2	83452727	777	12294
2	83562940	778	12413
2	83672917	779	12248
2	83783186	780	12420
2	83893236	781	12240
2	84003331	782	12337
2	84113559	783	12413
2	84223648	784	12297
2	84333783	785	12339
2	84443804	786	12239
2	84554028	787	12384
2	84664171	788	12349
2	84774360	789	12329
2	84884449	790	12285
2	84994472	791	12328
2	85104631	792	12359
2	85214789	793	12321
2	85325056	794	12396
2	85435039	795	12274
2	85545145	796	12283
2	85655294	797	12376
2	85765572	798	12393
2	85875499	799	12225
2	85985739	800	12412
2	86095792	801	12273
2	86206007	802	12345
2	86316097	803	12342
2	86426217	804	12365
2	86536284	805	12274
2	86646487	806	12361
2	86756550	807	12293
2	86866787	808	12332
2	86976879	809	12343
2	87087010	810	12327
2	87197143	811	12346
2	87307261	812	12293
2	87417427	813	12328
2	87527512	814	12322
2	87637599	815	12333
2	87747767	816	12308
2	87857922	817	12318
2	87968054	818	12342
2	88078182	819	12348
2	88188245	820	12326
2	88298424	821	12316
2	88408501	822	12300
2	88518669	823	12365
2	88628783	824	12273
2	88738880	825	12364
2	88849129	826	12332
2	88959113	827	12316
2	89069320	828	12341
2	89179495	829	12328
2	89289626	830	12397
2	89399738	831	12274
2	89509912	832	12374
2	89620011	833	12306
2	89730083	834	12302
2	89840328	835	12375
2	89950493	836	12303
2	90060449	837	12268
2	90170686	838	12359
2	90280773	839	12324
2	90390939	840	12367
2	90501085	841	12330
2	90611184	842	12276
2	90721358	843	12359
2	90831419	844	12328
2	90941545	845	12315
2	91051693	846	12325
2	91161856	847	12334
2	91271851	848	12260
2	91382138	849	12402
2	91492202	850	12341
2	91602321	851	12280
2	91712436	852	12352
2	91822636	853	12321
2	91932791	854	12334
2	92042846	855	12340
2	92153014	856	12287
2	92263102	857	12335
2	92373224	858	12357
2	92483325	859	12306
2	92593479	860	12332
2	92703727	861	12372
2	92813739	862	12305
2	92923919	863	12348
2	93033946	864	12290
2	93144210	865	12368
2	93254301	866	12347
2	93364367	867	12299
2	93474566	868	12355
2	93584695	869	12309
2	93694819	870	12334
2	93804914	871	12339
2	93915036	872	12265
2	94025161	873	12357
2	94135286	874	12333
2	94245398	875	12341
2	94355575	876	12326
2	94465698	877	12347
2	94575774	878	12227
2	94685885	879	12368
2	94796179	880	12380
2	94906206	881	12357
2	95016443	882	12305
2	95126497	883	12293
2	95236592	884	12304
2	95346787	885	12389
2	95456895	886	12320
2	95566941	887	12317
2	95677163	888	12320
2	95787266	889	12298
2	95897447	890	12368
2	96007527	891	12339
2	96117685	892	12264
2	96227800	893	12326
2	96337890	894	12332
2	96448097	895	12365
2	96558290	896	12356
2	96668379	897	12321
2	96778468	898	12321
2	96888507	899	12315
2	96998698	900	12304
2	97108923	901	12386
2	97219007	902	12333
2	97329084	903	12258
2	97439117	904	12326
2	97549303	905	12339
2	97659427	906	12361
2	97769623	907	12304
2	97879651	908	12287
2	97989761	909	12351
2	98099940	910	12384
2	98210110	911	12310
2	98320287	912	12347
2	98430434	913	12305
2	98540542	914	12363
2	98650622	915	12273
2	98760722	916	12382
2	98870801	917	12260
2	98981057	918	12388
2	99091184	919	12328
2	99201230	920	12350
2	99311366	921	12265
2	99421652	922	12388
2	99531544	923	12246
2	99641921	924	12432
2	99752008	925	12314
2	99862017	926	12327
2	99972149	927	12290
2	100082320	928	12341
2	100192436	929	12397
2	100302575	930	12253
2	100412736	931	12351
2	100522793	932	12282
2	100632917	933	12358
2	100743184	934	12383
2	100853240	935	12283
2	100963405	936	12299
2	101073350	937	12312
2	101183614	938	12348
2	101293837	939	12373
2	101403840	940	12311
2	101513962	941	12328
2	101624123	942	12330
2	101734305	943	12345
2	101844408	944	12293
2	101954538	945	12364
2	102064692	946	12373
2	102174708	947	12275
2	102284893	948	12360
2	102395026	949	12286
2	102505191	950	12373
2	102615264	951	12325
2	102725434	952	12294
2	102835487	953	12331
2	102945587	954	12298
2	103055781	955	12387
2	103165874	956	12288
2	103275999	957	12360
2	103386171	958	12268
2	103496260	959	12316
2	103606477	960	12382
2	103716635	961	12378
2	103826686	962	12225
2	103936892	963	12375
2	104046970	964	12305
2	104157183	965	12357
2	104267219	966	12287
2	104377363	967	12362
2	104487559	968	12365
2	104597603	969	12270
2	104707806	970	12312
2	104817900	971	12374
2	104928067	972	12315
2	105038286	973	12380
2	105148321	974	12250
2	105258474	975	12347
2	105368546	976	12359
2	105478687	977	12327
2	105588819	978	12332
2	105698927	979	12293
2	105809090	980	12368
2	105919124	981	12319
2	106029402	982	12372
2	106139427	983	12317
2	106249526	984	12257
2	106359679	985	12383
2	106469862	986	12333
2	106579930	987	12285
2	106689993	988	12338
2	106800245	989	12348
2	106910415	990	12378
2	107020501	991	12309
2	107130422	992	12244
2	107240693	993	12349
2	107350719	994	12348
2	107460995	995	12339
2	107571087	996	12333
2	107681192	997	12311
2	107791421	998	12359
2	107901595	999	12368
3	55149308	520	0
3	55259512	521	0
3	55369722	522	0
3	55479789	523	0
3	55589906	524	0
3	55700071	525	0
3	55810162	526	0
3	55920327	527	0
3	56030344	528	0
3	56140595	529	0
3	56250731	530	0
3	56360734	531	0
3	56470826	532	0
3	56580966	533	0
3	56691227	534	0
3	56801301	535	0
3	56911436	536	0
3	57021534	537	0
3	57131744	538	0
3	57241773	539	0
3	57351820	540	0
3	57462090	541	0
3	57572208	542	0
3	57682374	543	0
3	57792464	544	0
3	57902638	545	0
3	58012809	546	0
3	58122955	547	0
3	58233039	548	0
3	58343103	549	0
3	58453272	550	0
3	58563407	551	0
3	58673511	552	0
3	58783612	553	0
3	58893753	554	0
3	59003950	555	0
3	59114120	556	0
3	59224074	557	0
3	59334371	558	0
3	59444430	559	0
3	59554536	560	0
3	59664714	561	0
3	59774909	562	0
3	59885011	563	0
3	59995080	564	0
3	60105228	565	0
3	60215421	566	0
3	60325497	567	0
3	60435693	568	0
3	60545779	569	0
3	60655896	570	0
3	60766161	571	0
3	60876192	572	0
3	60986297	573	0
3	61096376	574	0
3	61206556	575	0
3	61316730	576	0
3	61426869	577	0
3	61536916	578	0
3	61647026	579	0
3	61757210	580	0
3	61867435	581	0
3	61977472	582	0
3	62087573	583	0
3	62197797	584	0
3	62307899	585	0
3	62417971	586	0
3	62528132	587	0
3	62638379	588	0
3	62748394	589	0
3	62858432	590	0
3	62968640	591	0
3	63078776	592	0
3	63188768	593	0
3	63298928	594	0
3	63409092	595	0
3	63519293	596	0
3	63629461	597	0
3	63739462	598	0
3	63849609	599	0
3	63959757	600	0
3	64069932	601	0
3	64179999	602	0
3	64290215	603	0
3	64400269	604	0
3	64510479	605	0
3	64620610	606	0
3	64730577	607	0
3	64840709	608	0
3	64950880	609	0
3	65061067	610	0
3	65171299	611	0
3	65281270	612	0
3	65391548	613	0
3	65501638	614	0
3	65611709	615	0
3	65721912	616	0
3	65832023	617	0
3	65942139	618	0
3	66052348	619	0
3	66162472	620	0
3	66272461	621	0
3	66382723	622	0
3	66492727	623	0
3	66602955	624	0
3	66713049	625	0
3	66823229	626	0
3	66933366	627	0
3	67043376	628	0
3	67153553	629	0
3	67263648	630	0
3	67373875	631	0
3	67483926	632	0
3	67594091	633	0
3	67704233	634	0
3	67814265	635	0
3	67924579	636	0
3	68034593	637	0
3	68144693	638	0
3	68254899	639	0
3	68365027	640	0
3	68475171	641	0
3	68585210	642	0
3	68695433	643	0
3	68805492	644	0
3	68915719	645	0
3	69025849	646	0
3	69135930	647	0
3	69245978	648	0
3	69356134	649	0
3	69466355	650	0
3	69576489	651	0
3	69686481	652	0
3	69796750	653	0
3	69906861	654	0
3	70017015	655	0
3	70127014	656	0
3	70237201	657	0
3	70347389	658	0
3	70457389	659	0
3	70567731	660	0
3	70677801	661	0
3	70787919	662	0
3	70898066	663	0
3	71008162	664	0
3	71118262	665	0
3	71228361	666	0
3	71338541	667	0
3	71448751	668	0
3	71558812	669	0
3	71668973	670	0
3	71779047	671	0
3	71889155	672	0
3	71999303	673	0
3	72109411	674	0
3	72219584	675	0
3	72329696	676	0
3	72439757	677	0
3	72549907	678	0
3	72660135	679	0
3	72770262	680	0
3	72880370	681	0
3	72990489	682	0
3	73100662	683	0
3	73210811	684	0
3	73320883	685	0
3	73431109	686	0
3	73541212	687	0
3	73651315	688	0
3	73761498	689	0
3	73871552	690	0
3	73981749	691	0
3	74091875	692	0
3	74201920	693	0
3	74312139	694	0
3	74422211	695	0
3	74532230	696	0
3	74642407	697	0
3	74752529	698	0
3	74862759	699	0
3	74972825	700	0
3	75082928	701	0
3	75193134	702	0
3	75303245	703	0
3	75413302	704	0
3	75523451	705	0
3	75633583	706	0
3	75743781	707	0
3	75853865	708	0
3	75964104	709	0
3	76074148	710	0
3	76184181	711	0
3	76294384	712	0
3	76404508	713	0
3	76514631	714	0
3	76624862	715	0
3	76734955	716	0
3	76845015	717	0
3	76955227	718	0
3	77065278	719	0
3	77175481	720	0
3	77285561	721	0
3	77395760	722	0
3	77505796	723	0
3	77615953	724	0
3	77726088	725	0
3	77836195	726	0
3	77946247	727	0
3	78056493	728	0
3	78166680	729	0
3	78276650	730	0
3	78386832	731	0
3	78497006	732	0
3	78607080	733	0
3	78717215	734	0
3	78827388	735	0
3	78937497	736	0
3	79047706	737	0
3	79157698	738	0
3	79267857	739	0
3	79377899	740	0
3	79488208	741	0
3	79598332	742	0
3	79708367	743	0
3	79818586	744	0
3	79928640	745	0
3	80038794	746	0
3	80148940	747	0
3	80259107	748	0
3	80369176	749	0
3	80479273	750	0
3	80589459	751	0
3	80699679	752	0
3	80809600	753	0
3	80919790	754	0
3	81029952	755	0
3	81140044	756	0
3	81250173	757	0
3	81360306	758	0
3	81470399	759	0
3	81580617	760	0
3	81690674	761	0
3	81800896	762	0
3	81910881	763	0
3	82021169	764	0
3	82131222	765	0
3	82241337	766	0
3	82351457	767	0
3	82461678	768	0
3	82571669	769	0
3	82681906	770	0
3	82792006	771	0
3	82902219	772	0
3	83012118	773	0
3	83122355	774	0
3	83232418	775	0
3	83342680	776	0
3	83452727	777	0
3	83562940	778	0
3	83672917	779	0
3	83783186	780	0
3	83893236	781	0
3	84003331	782	0
3	84113559	783	0
3	84223648	784	0
3	84333783	785	0
3	84443804	786	0
3	84554028	787	0
3	84664171	788	0
3	84774360	789	0
3	84884449	790	0
3	84994472	791	0
3	85104631	792	0
3	85214789	793	0
3	85325056	794	0
3	85435039	795	0
3	85545145	796	0
3	85655294	797	0
3	85765572	798	0
3	85875499	799	0
3	85985739	800	0
3	86095792	801	0
3	86206007	802	0
3	86316097	803	0
3	86426217	804	0
3	86536284	805	0
3	86646487	806	0
3	86756550	807	0
3	86866787	808	0
3	86976879	809	0
3	87087010	810	0
3	87197143	811	0
3	87307261	812	0
3	87417427	813	0
3	87527512	814	0
3	87637599	815	0
3	87747767	816	0
3	87857922	817	0
3	87968054	818	0
3	88078182	819	0
3	88188245	820	0
3	88298424	821	0
3	88408501	822	0
3	88518669	823	0
3	88628783	824	0
3	88738880	825	0
3	88849129	826	0
3	88959113	827	0
3	89069320	828	0
3	89179495	829	0
3	89289626	830	0
3	89399738	831	0
3	89509912	832	0
3	89620011	833	0
3	89730083	834	0
3	89840328	835	0
3	89950493	836	0
3	90060449	837	0
3	90170686	838	0
3	90280773	839	0
3	90390939	840	0
3	90501085	841	0
3	90611184	842	0
3	90721358	843	0
3	90831419	844	0
3	90941545	845	0
3	91051693	846	0
3	91161856	847	0
3	91271851	848	0
3	91382138	849	0
3	91492202	850	0
3	91602321	851	0
3	91712436	852	0
3	91822636	853	0
3	91932791	854	0
3	92042846	855	0
3	92153014	856	0
3	92263102	857	0
3	92373224	858	0
3	92483325	859	0
3	92593479	860	0
3	92703727	861	0
3	92813739	862	0
3	92923919	863	0
3	93033946	864	0
3	93144210	865	0
3	93254301	866	0
3	93364367	867	0
3	93474566	868	0
3	93584695	869	0
3	93694819	870	0
3	93804914	871	0
3	93915036	872	0
3	94025161	873	0
3	94135286	874	0
3	94245398	875	0
3	94355575	876	0
3	94465698	877	0
3	94575774	878	0
3	94685885	879	0
3	94796179	880	0
3	94906206	881	0
3	95016443	882	0
3	95126497	883	0
3	95236592	884	0
3	95346787	885	0
3	95456895	886	0
3	95566941	887	0
3	95677163	888	0
3	95787266	889	0
3	95897447	890	0
3	96007527	891	0
3	96117685	892	0
3	96227800	893	0
3	96337890	894	0
3	96448097	895	0
3	96558290	896	0
3	96668379	897	0
3	96778468	898	0
3	96888507	899	0
3	96998698	900	0
3	97108923	901	0
3	97219007	902	0
3	97329084	903	0
3	97439117	904	0
3	97549303	905	0
3	97659427	906	0
3	97769623	907	0
3	97879651	908	0
3	97989761	909	0
3	98099940	910	0
3	98210110	911	0
3	98320287	912	0
3	98430434	913	0
3	98540542	914	0
3	98650622	915	0
3	98760722	916	0
3	98870801	917	0
3	98981057	918	0
3	99091184	919	0
3	99201230	920	0
3	99311366	921	0
3	99421652	922	0
3	99531544	923	0
3	99641921	924	0
3	99752008	925	0
3	99862017	926	0
3	99972149	927	0
3	100082320	928	0
3	100192436	929	0
3	100302575	930	0
3	100412736	931	0
3	100522793	932	0
3	100632917	933	0
3	100743184	934	0
3	100853240	935	0
3	100963405	936	0
3	101073350	937	0
3	101183614	938	0
3	101293837	939	0
3	101403840	940	0
3	101513962	941	0
3	101624123	942	0
3	101734305	943	0
3	101844408	944	0
3	101954538	945	0
3	102064692	946	0
3	102174708	947	0
3	102284893	948	0
3	102395026	949	0
3	102505191	950	0
3	102615264	951	0
3	102725434	952	0
3	102835487	953	0
3	102945587	954	0
3	103055781	955	0
3	103165874	956	0
3	103275999	957	0
3	103386171	958	0
3	103496260	959	0
3	103606477	960	0
3	103716635	961	0
3	103826686	962	0
3	103936892	963	0
3	104046970	964	0
3	104157183	965	0
3	104267219	966	0
3	104377363	967	0
3	104487559	968	0
3	104597603	969	0
3	104707806	970	0
3	104817900	971	0