version 2
run PerfectCC-1-20100909-19:54:29-2156
attr configname PerfectCC
attr datetime 20100909-19:54:29
attr experiment PerfectCC
attr inifile D:/Developement/Oversim2/multic/simulations/omnetpp.ini
attr iterationvars $rateIncoming=300000
attr iterationvars2 "$rateIncoming=300000, $repetition=0"
attr measurement $rateIncoming=300000
attr network oversim.underlay.simpleunderlay.SimpleUnderlayNetwork
attr processid 2156
attr rateIncoming 300000
attr repetition 0
attr replication #0
attr resultdir results
attr runnumber 1
attr seedset 1

vector 1  SimpleUnderlayNetwork.globalObserver.globalStatistics  incoming_bytes  ETV
vector 2  SimpleUnderlayNetwork.globalObserver.globalStatistics  drops  ETV
vector 3  SimpleUnderlayNetwork.globalObserver.globalStatistics  delayed_acks  ETV
vector 4  SimpleUnderlayNetwork.globalObserver.globalStatistics  timetotimeouts  ETV
vector 5  SimpleUnderlayNetwork.globalObserver.globalStatistics  rate  ETV
vector 6  SimpleUnderlayNetwork.globalObserver.globalStatistics  "GlobalNodeList: Number of nodes"  ETV
vector 7  SimpleUnderlayNetwork.globalObserver.globalStatistics  "GlobalNodeList: Number of bootstrapped malicious nodes"  ETV
1	36094991	520	65084
1	36167795	521	66621
1	36240286	522	66091
1	36313131	523	66568
1	36385156	524	64978
1	36458561	525	67946
1	36531185	526	66091
1	36603182	527	64713
1	36674493	528	63335
1	36746436	529	65031
1	36818171	530	64183
1	36890680	531	66091
1	36962382	532	64236
1	37034638	533	65455
1	37106882	534	65137
1	37179263	535	65826
1	37251252	536	64766
1	37322854	537	64077
1	37394915	538	64819
1	37466437	539	63865
1	37538500	540	65137
1	37610488	541	65031
1	37682939	542	66038
1	37755108	543	65084
1	37827950	544	66886
1	37899920	545	64660
1	37973096	546	67681
1	38044381	547	62752
1	38116944	548	66091
1	38188472	549	63812
1	38261010	550	65985
1	38333372	551	65667
1	38405030	552	64236
1	38477859	553	66780
1	38550092	554	65349
1	38622387	555	65720
1	38694213	556	64077
1	38766361	557	65402
1	38838902	558	66250
1	38911563	559	66144
1	38983699	560	64978
1	39056112	561	65667
1	39128892	562	66621
1	39199790	563	62116
1	39271502	564	64342
1	39343453	565	64872
1	39415750	566	65508
1	39486837	567	62699
1	39559118	568	65826
1	39630770	569	63759
1	39702679	570	64660
1	39775156	571	66197
1	39847345	572	65349
1	39918930	573	63759
1	39990417	574	63706
1	40062623	575	65349
1	40133469	576	61851
1	40206130	577	66621
1	40278128	578	64819
1	40350935	579	66992
1	40422610	580	63759
1	40495050	581	65826
1	40567585	582	66250
1	40640176	583	66197
1	40712403	584	65296
1	40784888	585	65879
1	40856628	586	64183
1	40929151	587	65985
1	41001833	588	66409
1	41073319	589	63865
1	41146369	590	67151
1	41217725	591	63282
1	41290835	592	67257
1	41361791	593	61957
1	41434101	594	65349
1	41505700	595	64077
1	41577070	596	63653
1	41649713	597	66356
1	41721525	598	64077
1	41794134	599	66462
1	41866013	600	64713
1	41938485	601	65720
1	42010960	602	65773
1	42083596	603	66091
1	42156108	604	65985
1	42228686	605	66303
1	42300881	606	65402
1	42373950	607	67204
1	42446322	608	65349
1	42519301	609	66727
1	42591241	610	64660
1	42664249	611	67204
1	42736512	612	65137
1	42808782	613	65296
1	42881179	614	65826
1	42953039	615	64448
1	43025733	616	66356
1	43097755	617	64925
1	43169784	618	65296
1	43242796	619	67363
1	43315072	620	65296
1	43386962	621	64448
1	43459069	622	65031
1	43531149	623	64925
1	43603550	624	65614
1	43675252	625	64289
1	43748118	626	66780
1	43820404	627	65349
1	43892411	628	64872
1	43964523	629	65031
1	44036208	630	64289
1	44108270	631	65031
1	44180891	632	66303
1	44254031	633	67469
1	44325936	634	64660
1	44398193	635	65402
1	44470068	636	64501
1	44542444	637	65826
1	44614197	638	64077
1	44686496	639	66038
1	44758894	640	65667
1	44830504	641	63971
1	44902589	642	65243
1	44974726	643	65296
1	45046982	644	65508
1	45119162	645	65084
1	45190538	646	63229
1	45262388	647	65031
1	45335380	648	66727
1	45406572	649	62752
1	45479580	650	67098
1	45552421	651	66833
1	45624735	652	65243
1	45697134	653	65879
1	45769652	654	66303
1	45841555	655	64554
1	45913021	656	63494
1	45985658	657	66515
1	46057791	658	65031
1	46130484	659	66197
1	46202478	660	64607
1	46275627	661	67628
1	46347841	662	65402
1	46419139	663	63229
1	46491785	664	66303
1	46563649	665	64395
1	46635466	666	64289
1	46708814	667	67681
1	46779813	668	62434
1	46852263	669	66356
1	46924301	670	64660
1	46996150	671	64501
1	47068559	672	65879
1	47140713	673	64978
1	47213481	674	66409
1	47286189	675	66462
1	47359315	676	67204
1	47431176	677	64448
1	47504496	678	67840
1	47576441	679	64448
1	47648064	680	64183
1	47719929	681	64501
1	47791909	682	64925
1	47864634	683	66568
1	47936669	684	64978
1	48008840	685	65137
1	48080253	686	63388
1	48152388	687	65561
1	48225141	688	66303
1	48296702	689	63865
1	48369219	690	66038
1	48440415	691	63017
1	48513875	692	68052
1	48584708	693	62063
1	48657982	694	67734
1	48729337	695	63388
1	48801984	696	66091
1	48873972	697	65031
1	48946646	698	66250
1	49019280	699	66144
1	49091096	700	64660
1	49163430	701	65402
1	49235340	702	64660
1	49307452	703	64819
1	49378897	704	63759
1	49451022	705	65402
1	49522860	706	64554
1	49595700	707	66674
1	49667812	708	64872
1	49739965	709	65508
1	49812459	710	65985
1	49884472	711	64448
1	49957040	712	66091
1	50030127	713	67469
1	50102399	714	65190
1	50175339	715	66992
1	50247435	716	64766
1	50319562	717	65296
1	50392521	718	67045
1	50465076	719	66197
1	50537561	720	65773
1	50609889	721	65402
1	50682136	722	65402
1	50753939	723	64448
1	50825997	724	64872
1	50897606	725	64183
1	50969975	726	65879
1	51042610	727	66356
1	51114845	728	65243
1	51187840	729	66992
1	51259677	730	63971
1	51331458	731	64554
1	51404423	732	66886
1	51475757	733	63335
1	51548415	734	66409
1	51621367	735	67098
1	51694271	736	66939
1	51766604	737	65243
1	51839189	738	66038
1	51911019	739	64554
1	51983233	740	65720
1	52055828	741	66038
1	52127358	742	63600
1	52199796	743	66038
1	52271819	744	65031
1	52344256	745	65402
1	52416229	746	64554
1	52487797	747	64554
1	52560888	748	67045
1	52632439	749	63759
1	52705740	750	67522
1	52776735	751	62381
1	52849953	752	67681
1	52922553	753	65985
1	52995190	754	66462
1	53067202	755	64501
1	53139349	756	65349
1	53212130	757	66992
1	53283704	758	63759
1	53355368	759	64024
1	53427535	760	65243
1	53500145	761	66197
1	53571402	762	63017
1	53643247	763	64766
1	53715983	764	66621
1	53787818	765	64130
1	53860430	766	66462
1	53932557	767	64978
1	54004680	768	64978
1	54077539	769	66780
1	54149797	770	65031
1	54222354	771	66356
1	54294614	772	65455
1	54367175	773	66091
1	54438698	774	63494
1	54511458	775	66833
1	54583267	776	64183
1	54655565	777	65879
1	54728287	778	66356
1	54799658	779	63229
1	54871327	780	64130
1	54943262	781	64766
1	55014828	782	63918
1	55087262	783	66144
1	55159747	784	66091
1	55232070	785	65402
1	55304683	786	66144
1	55376726	787	64713
1	55449062	788	65455
1	55521021	789	65084
1	55593460	790	65932
1	55665012	791	63759
1	55737292	792	65826
1	55809210	793	64501
1	55880646	794	63388
1	55952506	795	64819
1	56024310	796	64289
1	56096346	797	65243
1	56168565	798	65402
1	56240309	799	64501
1	56312316	800	64978
1	56383975	801	63918
1	56456559	802	66091
1	56528440	803	64607
1	56601266	804	66780
1	56674226	805	66833
1	56745703	806	63494
1	56818147	807	66144
1	56891045	808	66727
1	56962098	809	62593
1	57033944	810	64236
1	57106032	811	65508
1	57178255	812	65561
1	57250407	813	65243
1	57322571	814	65402
1	57393986	815	63600
1	57465606	816	63971
1	57537295	817	64395
1	57609097	818	64395
1	57681409	819	65349
1	57754494	820	67575
1	57827150	821	65879
1	57898765	822	63494
1	57971374	823	66515
1	58043134	824	64130
1	58115271	825	65349
1	58187078	826	64236
1	58259863	827	66515
1	58332098	828	65084
1	58404216	829	65296
1	58477122	830	66939
1	58548887	831	64448
1	58621457	832	66038
1	58693835	833	65455
1	58765628	834	64554
1	58837817	835	65455
1	58910361	836	65985
1	58982050	837	64448
1	59054938	838	66780
1	59126999	839	64501
1	59198408	840	63653
1	59270393	841	64978
1	59342532	842	65243
1	59414256	843	64024
1	59485752	844	63865
1	59558462	845	66515
1	59630337	846	64342
1	59702434	847	65296
1	59774045	848	63918
1	59846706	849	66568
1	59918769	850	65031
1	59990299	851	63494
1	60062296	852	64978
1	60135376	853	67681
1	60208268	854	66621
1	60279850	855	63759
1	60351296	856	63600
1	60423790	857	66091
1	60495452	858	63971
1	60567672	859	65455
1	60640555	860	66674
1	60711850	861	63123
1	60783986	862	65508
1	60856271	863	65826
1	60928554	864	65137
1	60999397	865	62275
1	61071787	866	65932
1	61143232	867	63441
1	61215595	868	65826
1	61287918	869	65561
1	61359902	870	64925
1	61432226	871	65667
1	61503794	872	63547
1	61575075	873	63282
1	61647184	874	65084
1	61719954	875	66780
1	61791939	876	65031
1	61865025	877	67098
1	61937305	878	65402
1	62008946	879	63653
1	62081141	880	65614
1	62153329	881	65349
1	62224579	882	62911
1	62296341	883	64554
1	62368555	884	65296
1	62439808	885	63229
1	62511791	886	64872
1	62583126	887	63176
1	62655456	888	65614
1	62728180	889	66674
1	62800073	890	64554
1	62871707	891	63865
1	62943539	892	64554
1	63015621	893	64925
1	63087168	894	64130
1	63159484	895	65508
1	63231561	896	64766
1	63303258	897	64395
1	63374966	898	64183
1	63447344	899	65932
1	63519402	900	65031
1	63591464	901	65084
1	63663556	902	64925
1	63735067	903	63653
1	63807465	904	65826
1	63879433	905	65031
1	63951440	906	64819
1	64023681	907	65508
1	64095825	908	65243
1	64167256	909	63706
1	64240767	910	67999
1	64311707	911	62116
1	64383683	912	65084
1	64454898	913	63123
1	64527292	914	65985
1	64599415	915	65243
1	64671134	916	64077
1	64743590	917	65985
1	64816338	918	66568
1	64887743	919	63388
1	64960031	920	65455
1	65032575	921	66038
1	65104138	922	64024
1	65176897	923	66568
1	65249859	924	67045
1	65322657	925	66727
1	65395260	926	66091
1	65468089	927	66780
1	65540619	928	65773
1	65612465	929	64289
1	65684900	930	66038
1	65758173	931	67840
1	65829681	932	63600
1	65901494	933	64554
1	65973793	934	65243
1	66046211	935	65879
1	66118333	936	64978
1	66190652	937	65667
1	66262794	938	65402
1	66335622	939	66568
1	66407529	940	64713
1	66480070	941	65932
1	66552526	942	65985
1	66624777	943	65349
1	66695934	944	62805
1	66768885	945	67045
1	66841489	946	66303
1	66913520	947	64819
1	66985623	948	65243
1	67057953	949	65455
1	67129780	950	64501
1	67202640	951	66674
1	67274771	952	64819
1	67346983	953	65561
1	67418746	954	64501
1	67491329	955	66303
1	67563240	956	64766
1	67635898	957	66303
1	67708012	958	64925
1	67780314	959	65508
1	67852606	960	65561
1	67924405	961	64554
1	67996965	962	66303
1	68069745	963	66409
1	68141286	964	63494
1	68213222	965	64978
1	68285390	966	64978
1	68357670	967	65508
1	68429884	968	65561
1	68502843	969	66939
1	68575323	970	65455
1	68646955	971	64130
1	68719121	972	65349
1	68791161	973	64925
1	68863166	974	65031
1	68936098	975	66886
1	69008556	976	65614
1	69080955	977	65402
1	69154124	978	67522
1	69226892	979	66303
1	69299024	980	65084
1	69371379	981	65508
1	69442967	982	63812
1	69514605	983	64077
1	69586954	984	65985
1	69658867	985	64872
1	69731724	986	66515
1	69802460	987	61533
1	69874694	988	65985
1	69947454	989	66780
1	70020149	990	65932
1	70092327	991	65243
1	70165037	992	66356
1	70236684	993	63918
1	70309178	994	65932
1	70381778	995	66197
1	70454164	996	65985
1	70526555	997	66038
1	70599123	998	65826
1	70670926	999	63971
2	36094991	520	30
2	36167795	521	19
2	36240286	522	13
2	36313131	523	29
2	36385156	524	13
2	36458561	525	30
2	36531185	526	37
2	36603182	527	40
2	36674493	528	15
2	36746436	529	35
2	36818171	530	24
2	36890680	531	34
2	36962382	532	22
2	37034638	533	40
2	37106882	534	17
2	37179263	535	34
2	37251252	536	32
2	37322854	537	25
2	37394915	538	34
2	37466437	539	19
2	37538500	540	22
2	37610488	541	18
2	37682939	542	31
2	37755108	543	18
2	37827950	544	43
2	37899920	545	2
2	37973096	546	70
2	38044381	547	30
2	38116944	548	36
2	38188472	549	20
2	38261010	550	16
2	38333372	551	41
2	38405030	552	12
2	38477859	553	24
2	38550092	554	16
2	38622387	555	32
2	38694213	556	25
2	38766361	557	17
2	38838902	558	18
2	38911563	559	45
2	38983699	560	38
2	39056112	561	18
2	39128892	562	59
2	39199790	563	27
2	39271502	564	21
2	39343453	565	34
2	39415750	566	56
2	39486837	567	11
2	39559118	568	39
2	39630770	569	35
2	39702679	570	25
2	39775156	571	11
2	39847345	572	48
2	39918930	573	41
2	39990417	574	14
2	40062623	575	71
2	40133469	576	8
2	40206130	577	27
2	40278128	578	8
2	40350935	579	41
2	40422610	580	31
2	40495050	581	12
2	40567585	582	20
2	40640176	583	33
2	40712403	584	32
2	40784888	585	30
2	40856628	586	25
2	40929151	587	18
2	41001833	588	42
2	41073319	589	12
2	41146369	590	46
2	41217725	591	13
2	41290835	592	81
2	41361791	593	23
2	41434101	594	37
2	41505700	595	41
2	41577070	596	29
2	41649713	597	29
2	41721525	598	27
2	41794134	599	43
2	41866013	600	31
2	41938485	601	22
2	42010960	602	28
2	42083596	603	19
2	42156108	604	13
2	42228686	605	28
2	42300881	606	15
2	42373950	607	38
2	42446322	608	27
2	42519301	609	40
2	42591241	610	17
2	42664249	611	34
2	42736512	612	34
2	42808782	613	29
2	42881179	614	29
2	42953039	615	21
2	43025733	616	22
2	43097755	617	19
2	43169784	618	5
2	43242796	619	25
2	43315072	620	30
2	43386962	621	32
2	43459069	622	35
2	43531149	623	24
2	43603550	624	42
2	43675252	625	10
2	43748118	626	39
2	43820404	627	32
2	43892411	628	17
2	43964523	629	33
2	44036208	630	17
2	44108270	631	28
2	44180891	632	11
2	44254031	633	24
2	44325936	634	23
2	44398193	635	35
2	44470068	636	15
2	44542444	637	32
2	44614197	638	19
2	44686496	639	6
2	44758894	640	31
2	44830504	641	23
2	44902589	642	24
2	44974726	643	18
2	45046982	644	19
2	45119162	645	50
2	45190538	646	20
2	45262388	647	16
2	45335380	648	64
2	45406572	649	12
2	45479580	650	25
2	45552421	651	24
2	45624735	652	25
2	45697134	653	21
2	45769652	654	33
2	45841555	655	56
2	45913021	656	6
2	45985658	657	41
2	46057791	658	22
2	46130484	659	39
2	46202478	660	17
2	46275627	661	21
2	46347841	662	46
2	46419139	663	21
2	46491785	664	59
2	46563649	665	32
2	46635466	666	16
2	46708814	667	66
2	46779813	668	8
2	46852263	669	33
2	46924301	670	50
2	46996150	671	13
2	47068559	672	32
2	47140713	673	21
2	47213481	674	27
2	47286189	675	16
2	47359315	676	51
2	47431176	677	11
2	47504496	678	37
2	47576441	679	41
2	47648064	680	20
2	47719929	681	28
2	47791909	682	14
2	47864634	683	13
2	47936669	684	28
2	48008840	685	47
2	48080253	686	20
2	48152388	687	27
2	48225141	688	35
2	48296702	689	18
2	48369219	690	48
2	48440415	691	7
2	48513875	692	84
2	48584708	693	9
2	48657982	694	56
2	48729337	695	24
2	48801984	696	23
2	48873972	697	30
2	48946646	698	26
2	49019280	699	30
2	49091096	700	21
2	49163430	701	49
2	49235340	702	18
2	49307452	703	53
2	49378897	704	11
2	49451022	705	28
2	49522860	706	9
2	49595700	707	44
2	49667812	708	16
2	49739965	709	23
2	49812459	710	41
2	49884472	711	24
2	49957040	712	18
2	50030127	713	45
2	50102399	714	21
2	50175339	715	41
2	50247435	716	12
2	50319562	717	19
2	50392521	718	30
2	50465076	719	25
2	50537561	720	30
2	50609889	721	25
2	50682136	722	43
2	50753939	723	16
2	50825997	724	35
2	50897606	725	4
2	50969975	726	16
2	51042610	727	18
2	51114845	728	18
2	51187840	729	53
2	51259677	730	44
2	51331458	731	10
2	51404423	732	51
2	51475757	733	13
2	51548415	734	11
2	51621367	735	12
2	51694271	736	38
2	51766604	737	28
2	51839189	738	41
2	51911019	739	19
2	51983233	740	13
2	52055828	741	52
2	52127358	742	14
2	52199796	743	28
2	52271819	744	20
2	52344256	745	47
2	52416229	746	23
2	52487797	747	11
2	52560888	748	74
2	52632439	749	14
2	52705740	750	66
2	52776735	751	6
2	52849953	752	36
2	52922553	753	6
2	52995190	754	38
2	53067202	755	26
2	53139349	756	7
2	53212130	757	30
2	53283704	758	42
2	53355368	759	27
2	53427535	760	23
2	53500145	761	40
2	53571402	762	38
2	53643247	763	17
2	53715983	764	44
2	53787818	765	17
2	53860430	766	30
2	53932557	767	39
2	54004680	768	14
2	54077539	769	46
2	54149797	770	18
2	54222354	771	26
2	54294614	772	20
2	54367175	773	37
2	54438698	774	12
2	54511458	775	40
2	54583267	776	16
2	54655565	777	11
2	54728287	778	37
2	54799658	779	48
2	54871327	780	24
2	54943262	781	31
2	55014828	782	17
2	55087262	783	8
2	55159747	784	31
2	55232070	785	19
2	55304683	786	31
2	55376726	787	25
2	55449062	788	23
2	55521021	789	14
2	55593460	790	49
2	55665012	791	8
2	55737292	792	33
2	55809210	793	49
2	55880646	794	20
2	55952506	795	28
2	56024310	796	24
2	56096346	797	23
2	56168565	798	19
2	56240309	799	13
2	56312316	800	45
2	56383975	801	20
2	56456559	802	34
2	56528440	803	30
2	56601266	804	19
2	56674226	805	46
2	56745703	806	15
2	56818147	807	23
2	56891045	808	60
2	56962098	809	33
2	57033944	810	12
2	57106032	811	10
2	57178255	812	25
2	57250407	813	13
2	57322571	814	33
2	57393986	815	37
2	57465606	816	20
2	57537295	817	31
2	57609097	818	29
2	57681409	819	16
2	57754494	820	30
2	57827150	821	62
2	57898765	822	16
2	57971374	823	47
2	58043134	824	23
2	58115271	825	45
2	58187078	826	19
2	58259863	827	28
2	58332098	828	37
2	58404216	829	16
2	58477122	830	31
2	58548887	831	19
2	58621457	832	22
2	58693835	833	33
2	58765628	834	9
2	58837817	835	24
2	58910361	836	21
2	58982050	837	18
2	59054938	838	34
2	59126999	839	57
2	59198408	840	13
2	59270393	841	40
2	59342532	842	32
2	59414256	843	41
2	59485752	844	15
2	59558462	845	36
2	59630337	846	13
2	59702434	847	37
2	59774045	848	7
2	59846706	849	41
2	59918769	850	47
2	59990299	851	33
2	60062296	852	8
2	60135376	853	24
2	60208268	854	34
2	60279850	855	49
2	60351296	856	10
2	60423790	857	45
2	60495452	858	26
2	60567672	859	14
2	60640555	860	47
2	60711850	861	11
2	60783986	862	12
2	60856271	863	32
2	60928554	864	54
2	60999397	865	9
2	61071787	866	48
2	61143232	867	15
2	61215595	868	33
2	61287918	869	16
2	61359902	870	8
2	61432226	871	39
2	61503794	872	63
2	61575075	873	31
2	61647184	874	9
2	61719954	875	19
2	61791939	876	16
2	61865025	877	31
2	61937305	878	51
2	62008946	879	23
2	62081141	880	35
2	62153329	881	49
2	62224579	882	33
2	62296341	883	21
2	62368555	884	54
2	62439808	885	20
2	62511791	886	59
2	62583126	887	26
2	62655456	888	20
2	62728180	889	28
2	62800073	890	35
2	62871707	891	31
2	62943539	892	32
2	63015621	893	34
2	63087168	894	25
2	63159484	895	44
2	63231561	896	16
2	63303258	897	26
2	63374966	898	14
2	63447344	899	26
2	63519402	900	20
2	63591464	901	30
2	63663556	902	43
2	63735067	903	14
2	63807465	904	24
2	63879433	905	23
2	63951440	906	21
2	64023681	907	15
2	64095825	908	54
2	64167256	909	17
2	64240767	910	71
2	64311707	911	12
2	64383683	912	46
2	64454898	913	26
2	64527292	914	10
2	64599415	915	30
2	64671134	916	20
2	64743590	917	26
2	64816338	918	47
2	64887743	919	21
2	64960031	920	14
2	65032575	921	36
2	65104138	922	23
2	65176897	923	7
2	65249859	924	22
2	65322657	925	15
2	65395260	926	29
2	65468089	927	14
2	65540619	928	54
2	65612465	929	15
2	65684900	930	12
2	65758173	931	45
2	65829681	932	26
2	65901494	933	25
2	65973793	934	27
2	66046211	935	33
2	66118333	936	23
2	66190652	937	14
2	66262794	938	20
2	66335622	939	33
2	66407529	940	13
2	66480070	941	36
2	66552526	942	21
2	66624777	943	48
2	66695934	944	13
2	66768885	945	30
2	66841489	946	28
2	66913520	947	17
2	66985623	948	23
2	67057953	949	40
2	67129780	950	19
2	67202640	951	37
2	67274771	952	16
2	67346983	953	23
2	67418746	954	11
2	67491329	955	23
2	67563240	956	18
2	67635898	957	29
2	67708012	958	28
2	67780314	959	16
2	67852606	960	34
2	67924405	961	18
2	67996965	962	17
2	68069745	963	45
2	68141286	964	30
2	68213222	965	32
2	68285390	966	39
2	68357670	967	15
2	68429884	968	19
2	68502843	969	44
2	68575323	970	40
2	68646955	971	11
2	68719121	972	24
2	68791161	973	35
2	68863166	974	7
2	68936098	975	46
2	69008556	976	42
2	69080955	977	18
2	69154124	978	26
2	69226892	979	41
2	69299024	980	27
2	69371379	981	41
2	69442967	982	26
2	69514605	983	15
2	69586954	984	20
2	69658867	985	16
2	69731724	986	75
2	69802460	987	12
2	69874694	988	10
2	69947454	989	24
2	70020149	990	56
2	70092327	991	9
2	70165037	992	39
2	70236684	993	15
2	70309178	994	32
2	70381778	995	9
2	70454164	996	14
2	70526555	997	27
2	70599123	998	44
2	70670926	999	27
3	36094991	520	5
3	36167795	521	16
3	36240286	522	16
3	36313131	523	14
3	36385156	524	19
3	36458561	525	21
3	36531185	526	23
3	36603182	527	16
3	36674493	528	20
3	36746436	529	24
3	36818171	530	20
3	36890680	531	24
3	36962382	532	14
3	37034638	533	7
3	37106882	534	17
3	37179263	535	17
3	37251252	536	17
3	37322854	537	15
3	37394915	538	25
3	37466437	539	13
3	37538500	540	31
3	37610488	541	13
3	37682939	542	10
3	37755108	543	21
3	37827950	544	26
3	37899920	545	30
3	37973096	546	21
3	38044381	547	25
3	38116944	548	17
3	38188472	549	27
3	38261010	550	12
3	38333372	551	15
3	38405030	552	16
3	38477859	553	13
3	38550092	554	20
3	38622387	555	18
3	38694213	556	11
3	38766361	557	14
3	38838902	558	29
3	38911563	559	19
3	38983699	560	24
3	39056112	561	17
3	39128892	562	17
3	39199790	563	18
3	39271502	564	13
3	39343453	565	18
3	39415750	566	18
3	39486837	567	27
3	39559118	568	14
3	39630770	569	20
3	39702679	570	13
3	39775156	571	19
3	39847345	572	21
3	39918930	573	21
3	39990417	574	14
3	40062623	575	16
3	40133469	576	10
3	40206130	577	14
3	40278128	578	29
3	40350935	579	16
3	40422610	580	33
3	40495050	581	15
3	40567585	582	15
3	40640176	583	22
3	40712403	584	18
3	40784888	585	20
3	40856628	586	19
3	40929151	587	22
3	41001833	588	20
3	41073319	589	25
3	41146369	590	23
3	41217725	591	23
3	41290835	592	19
3	41361791	593	20
3	41434101	594	16
3	41505700	595	25
3	41577070	596	14
3	41649713	597	27
3	41721525	598	29
3	41794134	599	16
3	41866013	600	19
3	41938485	601	16
3	42010960	602	18
3	42083596	603	16
3	42156108	604	11
3	42228686	605	20
3	42300881	606	18
3	42373950	607	24
3	42446322	608	22
3	42519301	609	27
3	42591241	610	16
3	42664249	611	11
3	42736512	612	25
3	42808782	613	19
3	42881179	614	17
3	42953039	615	14
3	43025733	616	8
3	43097755	617	19
3	43169784	618	13
3	43242796	619	27
3	43315072	620	22
3	43386962	621	12
3	43459069	622	9
3	43531149	623	15
3	43603550	624	32
3	43675252	625	28
3	43748118	626	19
3	43820404	627	13
3	43892411	628	11
3	43964523	629	26
3	44036208	630	26
3	44108270	631	21
3	44180891	632	10
3	44254031	633	28
3	44325936	634	17
3	44398193	635	21
3	44470068	636	20
3	44542444	637	13
3	44614197	638	13
3	44686496	639	20
3	44758894	640	23
3	44830504	641	13
3	44902589	642	18
3	44974726	643	23
3	45046982	644	20
3	45119162	645	18
3	45190538	646	17
3	45262388	647	14
3	45335380	648	25
3	45406572	649	10
3	45479580	650	13
3	45552421	651	24
3	45624735	652	27
3	45697134	653	19
3	45769652	654	19
3	45841555	655	13
3	45913021	656	23
3	45985658	657	18
3	46057791	658	17
3	46130484	659	17
3	46202478	660	15
3	46275627	661	22
3	46347841	662	23
3	46419139	663	23
3	46491785	664	16
3	46563649	665	16
3	46635466	666	24
3	46708814	667	21
3	46779813	668	18
3	46852263	669	20
3	46924301	670	20
3	46996150	671	17
3	47068559	672	23
3	47140713	673	16
3	47213481	674	24
3	47286189	675	18
3	47359315	676	18
3	47431176	677	17
3	47504496	678	23
3	47576441	679	33
3	47648064	680	18
3	47719929	681	14
3	47791909	682	12
3	47864634	683	21
3	47936669	684	31
3	48008840	685	18
3	48080253	686	27
3	48152388	687	13
3	48225141	688	17
3	48296702	689	9
3	48369219	690	10
3	48440415	691	24
3	48513875	692	22
3	48584708	693	23
3	48657982	694	22
3	48729337	695	26
3	48801984	696	25
3	48873972	697	9
3	48946646	698	14
3	49019280	699	18
3	49091096	700	23
3	49163430	701	23
3	49235340	702	22
3	49307452	703	28
3	49378897	704	9
3	49451022	705	27
3	49522860	706	15
3	49595700	707	17
3	49667812	708	25
3	49739965	709	17
3	49812459	710	19
3	49884472	711	26
3	49957040	712	19
3	50030127	713	13
3	50102399	714	20
3	50175339	715	12
3	50247435	716	20
3	50319562	717	11
3	50392521	718	21
3	50465076	719	21
3	50537561	720	27
3	50609889	721	27
3	50682136	722	20
3	50753939	723	12
3	50825997	724	12
3	50897606	725	12
3	50969975	726	30
3	51042610	727	21
3	51114845	728	27
3	51187840	729	25
3	51259677	730	23
3	51331458	731	27
3	51404423	732	21
3	51475757	733	20
3	51548415	734	12
3	51621367	735	17
3	51694271	736	22
3	51766604	737	32
3	51839189	738	18
3	51911019	739	14
3	51983233	740	22
3	52055828	741	25
3	52127358	742	18
3	52199796	743	19
3	52271819	744	12
3	52344256	745	24
3	52416229	746	19
3	52487797	747	15
3	52560888	748	26
3	52632439	749	28
3	52705740	750	17
3	52776735	751	14
3	52849953	752	14
3	52922553	753	22
3	52995190	754	24
3	53067202	755	20
3	53139349	756	16
3	53212130	757	18
3	53283704	758	17
3	53355368	759	14
3	53427535	760	17
3	53500145	761	26
3	53571402	762	18
3	53643247	763	12
3	53715983	764	12
3	53787818	765	20
3	53860430	766	18
3	53932557	767	14
3	54004680	768	14
3	54077539	769	6
3	54149797	770	30
3	54222354	771	32
3	54294614	772	22
3	54367175	773	16
3	54438698	774	11
3	54511458	775	15
3	54583267	776	27
3	54655565	777	12
3	54728287	778	23
3	54799658	779	24
3	54871327	780	9
3	54943262	781	14
3	55014828	782	22
3	55087262	783	21
3	55159747	784	16
3	55232070	785	14
3	55304683	786	16
3	55376726	787	20
3	55449062	788	19
3	55521021	789	16
3	55593460	790	14
3	55665012	791	14
3	55737292	792	16
3	55809210	793	17
3	55880646	794	24
3	55952506	795	33
3	56024310	796	17
3	56096346	797	8
3	56168565	798	18
3	56240309	799	13
3	56312316	800	22
3	56383975	801	17
3	56456559	802	16
3	56528440	803	19
3	56601266	804	22
3	56674226	805	20
3	56745703	806	16
3	56818147	807	15
3	56891045	808	16
3	56962098	809	20
3	57033944	810	23
3	57106032	811	22
3	57178255	812	11
3	57250407	813	27
3	57322571	814	29
3	57393986	815	28
3	57465606	816	14
3	57537295	817	14
3	57609097	818	24
3	57681409	819	27
3	57754494	820	21
3	57827150	821	25
3	57898765	822	18
3	57971374	823	14
3	58043134	824	22
3	58115271	825	22
3	58187078	826	21
3	58259863	827	8
3	58332098	828	25
3	58404216	829	17
3	58477122	830	13
3	58548887	831	21
3	58621457	832	22
3	58693835	833	10
3	58765628	834	11
3	58837817	835	19
3	58910361	836	22
3	58982050	837	20
3	59054938	838	31
3	59126999	839	29
3	59198408	840	16
3	59270393	841	11
3	59342532	842	8
3	59414256	843	22
3	59485752	844	15
3	59558462	845	11
3	59630337	846	23
3	59702434	847	9
3	59774045	848	17
3	59846706	849	11
3	59918769	850	25
3	59990299	851	23
3	60062296	852	22
3	60135376	853	14
3	60208268	854	18
3	60279850	855	16
3	60351296	856	13
3	60423790	857	15
3	60495452	858	16
3	60567672	859	21
3	60640555	860	17
3	60711850	861	13
3	60783986	862	7
3	60856271	863	16
3	60928554	864	35
3	60999397	865	22
3	61071787	866	8
3	61143232	867	19
3	61215595	868	9
3	61287918	869	16
3	61359902	870	26
3	61432226	871	21
3	61503794	872	23
3	61575075	873	23
3	61647184	874	22
3	61719954	875	12
3	61791939	876	14
3	61865025	877	27
3	61937305	878	12
3	62008946	879	23
3	62081141	880	22
3	62153329	881	26
3	62224579	882	14
3	62296341	883	13
3	62368555	884	23
3	62439808	885	16
3	62511791	886	16
3	62583126	887	18
3	62655456	888	23
3	62728180	889	27
3	62800073	890	22
3	62871707	891	18
3	62943539	892	16
3	63015621	893	23
3	63087168	894	15
3	63159484	895	28
3	63231561	896	34
3	63303258	897	10
3	63374966	898	18
3	63447344	899	20
3	63519402	900	19
3	63591464	901	14
3	63663556	902	15
3	63735067	903	19
3	63807465	904	12
3	63879433	905	13
3	63951440	906	21
3	64023681	907	23
3	64095825	908	14
3	64167256	909	23
3	64240767	910	21
3	64311707	911	25
3	64383683	912	19
3	64454898	913	9
3	64527292	914	12
3	64599415	915	17
3	64671134	916	14
3	64743590	917	12
3	64816338	918	24
3	64887743	919	26
3	64960031	920	22
3	65032575	921	14
3	65104138	922	20
3	65176897	923	19
3	65249859	924	18
3	65322657	925	15
3	65395260	926	31
3	65468089	927	12
3	65540619	928	23
3	65612465	929	19
3	65684900	930	15
3	65758173	931	20
3	65829681	932	33
3	65901494	933	27
3	65973793	934	23
3	66046211	935	19
3	66118333	936	21
3	66190652	937	22
3	66262794	938	21
3	66335622	939	26
3	66407529	940	13
3	66480070	941	22
3	66552526	942	13
3	66624777	943	18
3	66695934	944	28
3	66768885	945	22
3	66841489	946	13
3	66913520	947	32
3	66985623	948	10
3	67057953	949	6
3	67129780	950	17
3	67202640	951	15
3	67274771	952	27
3	67346983	953	25
3	67418746	954	20
3	67491329	955	20
3	67563240	956	15
3	67635898	957	22
3	67708012	958	19
3	67780314	959	14
3	67852606	960	20
3	67924405	961	19
3	67996965	962	17
3	68069745	963	22
3	68141286	964	13
3	68213222	965	17
3	68285390	966	24
3	68357670	967	19
3	68429884	968	17
3	68502843	969	23
3	68575323	970	25
3	68646955	971	24
3	68719121	972	25
3	68791161	973	21
3	68863166	974	17
3	68936098	975	22
3	69008556	976	24
3	69080955	977	26
3	69154124	978	18
3	69226892	979	28
3	69299024	980	18
3	69371379	981	28
3	69442967	982	13
3	69514605	983	12
3	69586954	984	18
3	69658867	985	15
3	69731724	986	12
3	69802460	987	20
3	69874694	988	21
3	69947454	989	17
3	70020149	990	19
3	70092327	991	20
3	70165037	992	35
3	70236684	993	15
3	70309178	994	8
3	70381778	995	20
3	70454164	996	20
3	70526555	997	14
3	70599123	998	26
3	70670926	999	29
4	36094991	520	0.010331671449542