version 2
run PerfectCC-3-20100909-20:17:22-776
attr configname PerfectCC
attr datetime 20100909-20:17:22
attr experiment PerfectCC
attr inifile D:/Developement/Oversim2/multic/simulations/omnetpp.ini
attr iterationvars $rateIncoming=100000
attr iterationvars2 "$rateIncoming=100000, $repetition=0"
attr measurement $rateIncoming=100000
attr network oversim.underlay.simpleunderlay.SimpleUnderlayNetwork
attr processid 776
attr rateIncoming 100000
attr repetition 0
attr replication #0
attr resultdir results
attr runnumber 3
attr seedset 3

vector 1  SimpleUnderlayNetwork.globalObserver.globalStatistics  incoming_bytes  ETV
vector 2  SimpleUnderlayNetwork.globalObserver.globalStatistics  drops  ETV
vector 3  SimpleUnderlayNetwork.globalObserver.globalStatistics  delayed_acks  ETV
vector 4  SimpleUnderlayNetwork.globalObserver.globalStatistics  timetotimeouts  ETV
vector 5  SimpleUnderlayNetwork.globalObserver.globalStatistics  rate  ETV
vector 6  SimpleUnderlayNetwork.globalObserver.globalStatistics  "GlobalNodeList: Number of nodes"  ETV
vector 7  SimpleUnderlayNetwork.globalObserver.globalStatistics  "GlobalNodeList: Number of bootstrapped malicious nodes"  ETV
1	25538394	520	21730
1	25589691	521	23002
1	25640938	522	22684
1	25692003	523	22737
1	25743164	524	22578
1	25794241	525	21995
1	25845285	526	22843
1	25896362	527	21836
1	25947125	528	21200
1	25998250	529	23426
1	26048752	530	19928
1	26099932	531	23108
1	26151242	532	22472
1	26202603	533	23426
1	26253891	534	22896
1	26305270	535	23267
1	26356617	536	22366
1	26407768	537	22896
1	26458921	538	22260
1	26510123	539	22949
1	26561420	540	22684
1	26612431	541	21412
1	26662910	542	21359
1	26713745	543	21624
1	26764954	544	23055
1	26815938	545	22260
1	26866803	546	21730
1	26917909	547	22154
1	26968869	548	22631
1	27020129	549	22525
1	27071182	550	22048
1	27122547	551	23426
1	27173725	552	22578
1	27225053	553	22313
1	27275809	554	22048
1	27326842	555	22207
1	27377928	556	22737
1	27429486	557	23108
1	27480471	558	21836
1	27531562	559	22631
1	27582871	560	22472
1	27634226	561	23479
1	27685281	562	21147
1	27735915	563	21836
1	27786583	564	21942
1	27837251	565	21200
1	27888443	566	22419
1	27939164	567	22048
1	27989957	568	21465
1	28040778	569	21783
1	28091686	570	22419
1	28142181	571	21465
1	28192759	572	20935
1	28243442	573	22154
1	28293946	574	20829
1	28344835	575	22154
1	28395611	576	22154
1	28446435	577	21412
1	28497053	578	20988
1	28548265	579	23161
1	28599394	580	22737
1	28650525	581	22472
1	28701557	582	22048
1	28752604	583	22419
1	28803949	584	23002
1	28854958	585	22048
1	28906036	586	22101
1	28957038	587	22313
1	29008297	588	22737
1	29059534	589	22631
1	29110539	590	22154
1	29161762	591	22896
1	29213010	592	22737
1	29264395	593	22896
1	29315505	594	22313
1	29366643	595	22631
1	29417885	596	22737
1	29469014	597	22737
1	29520332	598	23108
1	29571400	599	22207
1	29622658	600	22790
1	29673848	601	22419
1	29725144	602	23267
1	29776318	603	22207
1	29827632	604	23320
1	29878568	605	21677
1	29929676	606	22472
1	29980706	607	21518
1	30031653	608	22737
1	30082645	609	22207
1	30133377	610	21359
1	30184442	611	22684
1	30235330	612	21730
1	30286171	613	21200
1	30337258	614	23479
1	30387974	615	20882
1	30439176	616	22472
1	30490271	617	22684
1	30541546	618	22737
1	30592846	619	23002
1	30644161	620	23267
1	30695277	621	21041
1	30746045	622	21995
1	30797143	623	22419
1	30848490	624	22843
1	30899648	625	22313
1	30950813	626	22684
1	31001941	627	22843
1	31053359	628	23002
1	31104724	629	23161
1	31155848	630	21889
1	31206869	631	22525
1	31257785	632	21942
1	31308899	633	22472
1	31359999	634	22631
1	31410724	635	21147
1	31461657	636	22419
1	31512751	637	22260
1	31563988	638	23108
1	31614874	639	21836
1	31665684	640	21253
1	31716787	641	22896
1	31767856	642	22737
1	31818923	643	21995
1	31869919	644	21836
1	31921298	645	23320
1	31972409	646	22631
1	32023394	647	22154
1	32074657	648	22684
1	32125749	649	23002
1	32176606	650	20723
1	32227589	651	22790
1	32277979	652	20299
1	32329121	653	23108
1	32379906	654	21677
1	32430597	655	21412
1	32481351	656	21147
1	32532071	657	21783
1	32582628	658	21041
1	32633451	659	22101
1	32684524	660	22684
1	32735407	661	21624
1	32785811	662	21041
1	32836793	663	22048
1	32887702	664	21836
1	32938769	665	22737
1	32989878	666	21836
1	33041039	667	22949
1	33092019	668	22101
1	33143204	669	22154
1	33194195	670	21889
1	33245446	671	23267
1	33295839	672	20670
1	33346933	673	22631
1	33397784	674	21465
1	33448895	675	22843
1	33499922	676	22260
1	33551050	677	22578
1	33602588	678	23426
1	33653612	679	21677
1	33705263	680	23903
1	33756180	681	21889
1	33807605	682	23214
1	33858724	683	22737
1	33909920	684	21677
1	33960857	685	22578
1	34011481	686	21094
1	34062483	687	22260
1	34113474	688	22313
1	34164694	689	23002
1	34215596	690	21041
1	34266750	691	23161
1	34317627	692	21783
1	34368633	693	22154
1	34419661	694	21995
1	34470779	695	22684
1	34521832	696	22154
1	34573077	697	23108
1	34624085	698	21518
1	34675462	699	23532
1	34725861	700	20564
1	34776769	701	21995
1	34827736	702	22419
1	34878500	703	21253
1	34929205	704	21889
1	34980141	705	22260
1	35031130	706	22101
1	35082243	707	22525
1	35133184	708	22101
1	35184051	709	21518
1	35235167	710	22684
1	35286042	711	21889
1	35336694	712	21200
1	35387664	713	22313
1	35437891	714	20246
1	35488851	715	22366
1	35539596	716	21624
1	35590605	717	22207
1	35641468	718	21942
1	35692433	719	22207
1	35743330	720	22260
1	35793988	721	20776
1	35845143	722	22737
1	35895822	723	21571
1	35946975	724	22472
1	35997941	725	22048
1	36048716	726	21624
1	36099873	727	23214
1	36150877	728	21730
1	36202101	729	22684
1	36253154	730	22366
1	36304578	731	23267
1	36355666	732	22154
1	36406742	733	22790
1	36458178	734	23161
1	36509686	735	23479
1	36560683	736	21624
1	36611894	737	23161
1	36662840	738	21518
1	36714076	739	23214
1	36765099	740	22366
1	36816320	741	22366
1	36867583	742	22949
1	36918726	743	22525
1	36969794	744	22260
1	37021079	745	22949
1	37072273	746	22578
1	37123487	747	22313
1	37174787	748	23479
1	37226087	749	22419
1	37277066	750	22737
1	37328199	751	22313
1	37379530	752	22684
1	37430673	753	22313
1	37481432	754	21942
1	37532735	755	22737
1	37583651	756	22101
1	37634969	757	23055
1	37686376	758	23055
1	37737431	759	22260
1	37788681	760	22631
1	37840002	761	23214
1	37891176	762	22578
1	37942500	763	22949
1	37993787	764	22419
1	38045040	765	22366
1	38096339	766	23797
1	38147568	767	21995
1	38198836	768	22737
1	38250243	769	23797
1	38301526	770	22631
1	38352562	771	22207
1	38403779	772	22313
1	38455211	773	23161
1	38506408	774	22631
1	38557467	775	22419
1	38608772	776	22366
1	38660140	777	23532
1	38711475	778	22578
1	38762514	779	22578
1	38813941	780	23267
1	38865165	781	22737
1	38916651	782	23320
1	38967339	783	21306
1	39018677	784	23214
1	39069978	785	22790
1	39121328	786	22472
1	39172343	787	22472
1	39223668	788	22949
1	39275027	789	22790
1	39326341	790	23108
1	39377474	791	22154
1	39428677	792	22949
1	39480021	793	23055
1	39531407	794	22949
1	39582127	795	20776
1	39633494	796	23638
1	39684033	797	21359
1	39735108	798	21889
1	39786108	799	22366
1	39837208	800	22419
1	39887873	801	20458
1	39938642	802	22101
1	39989257	803	21677
1	40040136	804	21995
1	40090718	805	21412
1	40141254	806	21041
1	40191885	807	21518
1	40242645	808	21624
1	40293080	809	20670
1	40343398	810	20882
1	40394142	811	21571
1	40444708	812	21889
1	40495472	813	21147
1	40546002	814	21465
1	40596816	815	21995
1	40647523	816	21253
1	40697914	817	21359
1	40748702	818	21677
1	40799600	819	22048
1	40850207	820	21094
1	40901046	821	22207
1	40951943	822	22366
1	41002887	823	21836
1	41053906	824	22896
1	41104723	825	21465
1	41155719	826	22260
1	41206609	827	21783
1	41257456	828	21571
1	41308502	829	22525
1	41359345	830	21465
1	41410009	831	21465
1	41460562	832	21465
1	41511349	833	22048
1	41561869	834	20564
1	41612488	835	21571
1	41663173	836	21889
1	41713832	837	21359
1	41764484	838	21253
1	41815061	839	21253
1	41865497	840	20935
1	41916302	841	21783
1	41966713	842	21041
1	42017146	843	21253
1	42067868	844	21359
1	42118298	845	20564
1	42168631	846	21147
1	42219211	847	21465
1	42269899	848	21359
1	42320228	849	20882
1	42370943	850	21465
1	42421620	851	21677
1	42471976	852	21094
1	42522841	853	21783
1	42573796	854	22101
1	42624359	855	21306
1	42675007	856	21094
1	42725804	857	22472
1	42776585	858	21942
1	42827042	859	21200
1	42877680	860	21094
1	42928363	861	21253
1	42978944	862	21465
1	43029609	863	21836
1	43080016	864	20776
1	43130649	865	21518
1	43181256	866	21624
1	43231688	867	21041
1	43282029	868	20935
1	43332428	869	20670
1	43382962	870	21200
1	43433626	871	21624
1	43484308	872	21995
1	43534701	873	20776
1	43585102	874	20935
1	43635978	875	22578
1	43686417	876	20299
1	43736712	877	20776
1	43787651	878	22366
1	43838485	879	22419
1	43888700	880	19663
1	43939556	881	21995
1	43990169	882	21359
1	44040874	883	21412
1	44091622	884	22048
1	44142391	885	21942
1	44193157	886	21889
1	44243861	887	21730
1	44294631	888	21624
1	44345024	889	21200
1	44395370	890	19981
1	44446308	891	22631
1	44497025	892	21518
1	44547811	893	21730
1	44598410	894	21571
1	44649258	895	21836
1	44700200	896	21518
1	44751029	897	22631
1	44801710	898	21465
1	44852290	899	21412
1	44902820	900	21412
1	44953517	901	21889
1	45003890	902	20776
1	45054623	903	21518
1	45104944	904	20564
1	45155446	905	21624
1	45205672	906	20723
1	45256285	907	21412
1	45306952	908	21730
1	45357514	909	20935
1	45407841	910	20405
1	45458865	911	22578
1	45509734	912	22472
1	45560189	913	20511
1	45610767	914	21465
1	45661148	915	20829
1	45711869	916	21889
1	45762247	917	20670
1	45812955	918	22260
1	45863324	919	20723
1	45913599	920	20246
1	45964174	921	21253
1	46014585	922	21147
1	46065207	923	21889
1	46115897	924	21571
1	46166354	925	20723
1	46217101	926	21836
1	46267478	927	20935
1	46317782	928	20352
1	46368473	929	22313
1	46419134	930	21465
1	46469423	931	20193
1	46520112	932	21518
1	46570583	933	21200
1	46621228	934	21571
1	46671869	935	21200
1	46722301	936	21359
1	46773143	937	21889
1	46823416	938	20299
1	46873983	939	21571
1	46924744	940	21783
1	46975709	941	21783
1	47026624	942	22419
1	47077579	943	22048
1	47128554	944	21836
1	47179349	945	21942
1	47229966	946	21147
1	47280736	947	21677
1	47331500	948	22048
1	47382458	949	21836
1	47433121	950	21412
1	47484279	951	22419
1	47535001	952	21836
1	47586032	953	22472
1	47636981	954	21624
1	47687840	955	22366
1	47739101	956	22260
1	47789800	957	21730
1	47840713	958	21836
1	47891683	959	21783
1	47942322	960	21942
1	47992971	961	20617
1	48043555	962	21730
1	48094044	963	21147
1	48145063	964	22472
1	48196030	965	22048
1	48247171	966	22578
1	48297993	967	21518
1	48348824	968	21200
1	48399626	969	22313
1	48450186	970	20193
1	48500807	971	22207
1	48551470	972	21306
1	48602454	973	22313
1	48653083	974	20776
1	48703874	975	21889
1	48754737	976	21677
1	48805577	977	22313
1	48856241	978	20988
1	48907052	979	21783
1	48957622	980	20193
1	49008731	981	23373
1	49058964	982	19981
1	49109641	983	21359
1	49160525	984	22684
1	49211290	985	21253
1	49262475	986	22949
1	49313384	987	22101
1	49364126	988	21306
1	49414803	989	21677
1	49465744	990	22048
1	49516450	991	21624
1	49566869	992	20617
1	49617582	993	21571
1	49668479	994	22578
1	49719282	995	21465
1	49769891	996	21730
1	49820507	997	21094
1	49871214	998	21624
1	49921733	999	21253
2	25538394	520	9
2	25589691	521	6
2	25640938	522	13
2	25692003	523	3
2	25743164	524	9
2	25794241	525	17
2	25845285	526	3
2	25896362	527	16
2	25947125	528	10
2	25998250	529	34
2	26048752	530	14
2	26099932	531	2
2	26151242	532	10
2	26202603	533	4
2	26253891	534	11
2	26305270	535	3
2	26356617	536	15
2	26407768	537	6
2	26458921	538	5
2	26510123	539	9
2	26561420	540	4
2	26612431	541	45
2	26662910	542	34
2	26713745	543	5
2	26764954	544	7
2	26815938	545	11
2	26866803	546	2
2	26917909	547	14
2	26968869	548	4
2	27020129	549	7
2	27071182	550	8
2	27122547	551	3
2	27173725	552	3
2	27225053	553	22
2	27275809	554	11
2	27326842	555	16
2	27377928	556	1
2	27429486	557	18
2	27480471	558	11
2	27531562	559	3
2	27582871	560	9
2	27634226	561	8
2	27685281	562	44
2	27735915	563	24
2	27786583	564	7
2	27837251	565	2
2	27888443	566	8
2	27939164	567	9
2	27989957	568	9
2	28040778	569	3
2	28091686	570	4
2	28142181	571	2
2	28192759	572	6
2	28243442	573	8
2	28293946	574	9
2	28344835	575	7
2	28395611	576	11
2	28446435	577	18
2	28497053	578	6
2	28548265	579	4
2	28599394	580	13
2	28650525	581	5
2	28701557	582	4
2	28752604	583	6
2	28803949	584	12
2	28854958	585	5
2	28906036	586	14
2	28957038	587	7
2	29008297	588	2
2	29059534	589	18
2	29110539	590	1
2	29161762	591	7
2	29213010	592	9
2	29264395	593	5
2	29315505	594	10
2	29366643	595	1
2	29417885	596	11
2	29469014	597	4
2	29520332	598	6
2	29571400	599	6
2	29622658	600	3
2	29673848	601	9
2	29725144	602	7
2	29776318	603	8
2	29827632	604	11
2	29878568	605	8
2	29929676	606	7
2	29980706	607	6
2	30031653	608	7
2	30082645	609	10
2	30133377	610	1
2	30184442	611	5
2	30235330	612	15
2	30286171	613	27
2	30337258	614	31
2	30387974	615	6
2	30439176	616	12
2	30490271	617	9
2	30541546	618	5
2	30592846	619	10
2	30644161	620	6
2	30695277	621	37
2	30746045	622	25
2	30797143	623	10
2	30848490	624	9
2	30899648	625	17
2	30950813	626	9
2	31001941	627	2
2	31053359	628	9
2	31104724	629	10
2	31155848	630	12
2	31206869	631	12
2	31257785	632	4
2	31308899	633	10
2	31359999	634	18
2	31410724	635	8
2	31461657	636	8
2	31512751	637	1
2	31563988	638	6
2	31614874	639	8
2	31665684	640	4
2	31716787	641	5
2	31767856	642	8
2	31818923	643	9
2	31869919	644	0
2	31921298	645	6
2	31972409	646	8
2	32023394	647	8
2	32074657	648	6
2	32125749	649	2
2	32176606	650	28
2	32227589	651	32
2	32277979	652	3
2	32329121	653	9
2	32379906	654	21
2	32430597	655	6
2	32481351	656	45
2	32532071	657	27
2	32582628	658	7
2	32633451	659	0
2	32684524	660	10
2	32735407	661	35
2	32785811	662	6
2	32836793	663	17
2	32887702	664	7
2	32938769	665	6
2	32989878	666	10
2	33041039	667	6
2	33092019	668	2
2	33143204	669	8
2	33194195	670	10
2	33245446	671	42
2	33295839	672	5
2	33346933	673	8
2	33397784	674	5
2	33448895	675	3
2	33499922	676	10
2	33551050	677	3
2	33602588	678	13
2	33653612	679	7
2	33705263	680	13
2	33756180	681	3
2	33807605	682	11
2	33858724	683	6
2	33909920	684	37
2	33960857	685	32
2	34011481	686	2
2	34062483	687	14
2	34113474	688	14
2	34164694	689	9
2	34215596	690	10
2	34266750	691	10
2	34317627	692	9
2	34368633	693	5
2	34419661	694	13
2	34470779	695	8
2	34521832	696	6
2	34573077	697	2
2	34624085	698	8
2	34675462	699	44
2	34725861	700	7
2	34776769	701	8
2	34827736	702	10
2	34878500	703	8
2	34929205	704	10
2	34980141	705	2
2	35031130	706	9
2	35082243	707	13
2	35133184	708	6
2	35184051	709	5
2	35235167	710	12
2	35286042	711	14
2	35336694	712	8
2	35387664	713	45
2	35437891	714	1
2	35488851	715	18
2	35539596	716	1
2	35590605	717	14
2	35641468	718	7
2	35692433	719	19
2	35743330	720	8
2	35793988	721	7
2	35845143	722	21
2	35895822	723	4
2	35946975	724	7
2	35997941	725	12
2	36048716	726	2
2	36099873	727	8
2	36150877	728	10
2	36202101	729	9
2	36253154	730	4
2	36304578	731	10
2	36355666	732	8
2	36406742	733	3
2	36458178	734	4
2	36509686	735	6
2	36560683	736	2
2	36611894	737	12
2	36662840	738	5
2	36714076	739	6
2	36765099	740	5
2	36816320	741	6
2	36867583	742	10
2	36918726	743	5
2	36969794	744	9
2	37021079	745	6
2	37072273	746	6
2	37123487	747	15
2	37174787	748	4
2	37226087	749	11
2	37277066	750	5
2	37328199	751	13
2	37379530	752	8
2	37430673	753	18
2	37481432	754	4
2	37532735	755	6
2	37583651	756	8
2	37634969	757	0
2	37686376	758	11
2	37737431	759	10
2	37788681	760	11
2	37840002	761	6
2	37891176	762	8
2	37942500	763	5
2	37993787	764	9
2	38045040	765	13
2	38096339	766	7
2	38147568	767	8
2	38198836	768	0
2	38250243	769	7
2	38301526	770	13
2	38352562	771	3
2	38403779	772	13
2	38455211	773	13
2	38506408	774	17
2	38557467	775	4
2	38608772	776	7
2	38660140	777	3
2	38711475	778	17
2	38762514	779	1
2	38813941	780	12
2	38865165	781	0
2	38916651	782	21
2	38967339	783	4
2	39018677	784	12
2	39069978	785	3
2	39121328	786	23
2	39172343	787	7
2	39223668	788	5
2	39275027	789	7
2	39326341	790	9
2	39377474	791	7
2	39428677	792	6
2	39480021	793	14
2	39531407	794	9
2	39582127	795	15
2	39633494	796	34
2	39684033	797	4
2	39735108	798	21
2	39786108	799	6
2	39837208	800	10
2	39887873	801	30
2	39938642	802	23
2	39989257	803	5
2	40040136	804	10
2	40090718	805	20
2	40141254	806	12
2	40191885	807	6
2	40242645	808	13
2	40293080	809	22
2	40343398	810	3
2	40394142	811	21
2	40444708	812	9
2	40495472	813	12
2	40546002	814	3
2	40596816	815	4
2	40647523	816	17
2	40697914	817	10
2	40748702	818	7
2	40799600	819	18
2	40850207	820	9
2	40901046	821	3
2	40951943	822	12
2	41002887	823	1
2	41053906	824	9
2	41104723	825	11
2	41155719	826	9
2	41206609	827	9
2	41257456	828	14
2	41308502	829	13
2	41359345	830	16
2	41410009	831	11
2	41460562	832	4
2	41511349	833	14
2	41561869	834	16
2	41612488	835	8
2	41663173	836	10
2	41713832	837	18
2	41764484	838	4
2	41815061	839	7
2	41865497	840	10
2	41916302	841	20
2	41966713	842	13
2	42017146	843	9
2	42067868	844	17
2	42118298	845	10
2	42168631	846	4
2	42219211	847	15
2	42269899	848	18
2	42320228	849	6
2	42370943	850	9
2	42421620	851	18
2	42471976	852	5
2	42522841	853	11
2	42573796	854	13
2	42624359	855	16
2	42675007	856	6
2	42725804	857	4
2	42776585	858	10
2	42827042	859	6
2	42877680	860	6
2	42928363	861	11
2	42978944	862	3
2	43029609	863	6
2	43080016	864	7
2	43130649	865	12
2	43181256	866	4
2	43231688	867	11
2	43282029	868	17
2	43332428	869	12
2	43382962	870	1
2	43433626	871	3
2	43484308	872	19
2	43534701	873	14
2	43585102	874	2
2	43635978	875	11
2	43686417	876	14
2	43736712	877	2
2	43787651	878	7
2	43838485	879	15
2	43888700	880	7
2	43939556	881	9
2	43990169	882	10
2	44040874	883	4
2	44091622	884	6
2	44142391	885	8
2	44193157	886	7
2	44243861	887	6
2	44294631	888	18
2	44345024	889	7
2	44395370	890	13
2	44446308	891	6
2	44497025	892	3
2	44547811	893	22
2	44598410	894	6
2	44649258	895	7
2	44700200	896	11
2	44751029	897	5
2	44801710	898	4
2	44852290	899	8
2	44902820	900	1
2	44953517	901	10
2	45003890	902	5
2	45054623	903	12
2	45104944	904	5
2	45155446	905	20
2	45205672	906	4
2	45256285	907	4
2	45306952	908	6
2	45357514	909	18
2	45407841	910	3
2	45458865	911	10
2	45509734	912	14
2	45560189	913	4
2	45610767	914	19
2	45661148	915	4
2	45711869	916	9
2	45762247	917	7
2	45812955	918	13
2	45863324	919	9
2	45913599	920	11
2	45964174	921	11
2	46014585	922	4
2	46065207	923	8
2	46115897	924	8
2	46166354	925	10
2	46217101	926	9
2	46267478	927	13
2	46317782	928	1
2	46368473	929	3
2	46419134	930	31
2	46469423	931	8
2	46520112	932	14
2	46570583	933	4
2	46621228	934	15
2	46671869	935	15
2	46722301	936	14
2	46773143	937	8
2	46823416	938	12
2	46873983	939	9
2	46924744	940	9
2	46975709	941	12
2	47026624	942	6
2	47077579	943	7
2	47128554	944	22
2	47179349	945	18
2	47229966	946	13
2	47280736	947	5
2	47331500	948	7
2	47382458	949	22
2	47433121	950	7
2	47484279	951	22
2	47535001	952	9
2	47586032	953	10
2	47636981	954	22
2	47687840	955	7
2	47739101	956	23
2	47789800	957	13
2	47840713	958	7
2	47891683	959	15
2	47942322	960	5
2	47992971	961	33
2	48043555	962	32
2	48094044	963	7
2	48145063	964	10
2	48196030	965	16
2	48247171	966	17
2	48297993	967	11
2	48348824	968	19
2	48399626	969	9
2	48450186	970	33
2	48500807	971	31
2	48551470	972	9
2	48602454	973	24
2	48653083	974	19
2	48703874	975	7
2	48754737	976	25
2	48805577	977	23
2	48856241	978	23
2	48907052	979	12
2	48957622	980	24
2	49008731	981	39
2	49058964	982	23
2	49109641	983	6
2	49160525	984	10
2	49211290	985	10
2	49262475	986	13
2	49313384	987	13
2	49364126	988	16
2	49414803	989	7
2	49465744	990	10
2	49516450	991	22
2	49566869	992	10
2	49617582	993	15
2	49668479	994	17
2	49719282	995	20
2	49769891	996	9
2	49820507	997	12
2	49871214	998	15
2	49921733	999	17
3	25538394	520	1
3	25589691	521	12
3	25640938	522	4
3	25692003	523	2
3	25743164	524	4
3	25794241	525	5
3	25845285	526	4
3	25896362	527	2
3	25947125	528	4
3	25998250	529	6
3	26048752	530	3
3	26099932	531	2
3	26151242	532	3
3	26202603	533	7
3	26253891	534	7
3	26305270	535	7
3	26356617	536	5
3	26407768	537	5
3	26458921	538	9
3	26510123	539	3
3	26561420	540	7
3	26612431	541	6
3	26662910	542	3
3	26713745	543	2
3	26764954	544	5
3	26815938	545	6
3	26866803	546	4
3	26917909	547	2
3	26968869	548	4
3	27020129	549	5
3	27071182	550	7
3	27122547	551	6
3	27173725	552	7
3	27225053	553	4
3	27275809	554	4
3	27326842	555	6
3	27377928	556	2
3	27429486	557	9
3	27480471	558	7
3	27531562	559	5
3	27582871	560	5
3	27634226	561	2
3	27685281	562	2
3	27735915	563	10
3	27786583	564	7
3	27837251	565	2
3	27888443	566	3
3	27939164	567	3
3	27989957	568	3
3	28040778	569	6
3	28091686	570	3
3	28142181	571	6
3	28192759	572	4
3	28243442	573	0
3	28293946	574	6
3	28344835	575	2
3	28395611	576	4
3	28446435	577	5
3	28497053	578	6
3	28548265	579	5
3	28599394	580	5
3	28650525	581	2
3	28701557	582	6
3	28752604	583	6
3	28803949	584	5
3	28854958	585	5
3	28906036	586	10
3	28957038	587	4
3	29008297	588	0
3	29059534	589	4
3	29110539	590	7
3	29161762	591	5
3	29213010	592	8
3	29264395	593	4
3	29315505	594	2
3	29366643	595	7
3	29417885	596	6
3	29469014	597	2
3	29520332	598	4
3	29571400	599	3
3	29622658	600	6
3	29673848	601	3
3	29725144	602	8
3	29776318	603	9
3	29827632	604	6
3	29878568	605	2
3	29929676	606	5
3	29980706	607	3
3	30031653	608	3
3	30082645	609	5
3	30133377	610	6
3	30184442	611	6
3	30235330	612	5
3	30286171	613	3
3	30337258	614	7
3	30387974	615	1
3	30439176	616	2
3	30490271	617	2
3	30541546	618	4
3	30592846	619	4
3	30644161	620	6
3	30695277	621	4
3	30746045	622	8
3	30797143	623	3
3	30848490	624	6
3	30899648	625	5
3	30950813	626	4
3	31001941	627	6
3	31053359	628	5
3	31104724	629	4
3	31155848	630	5
3	31206869	631	3
3	31257785	632	3
3	31308899	633	4
3	31359999	634	2
3	31410724	635	4
3	31461657	636	11
3	31512751	637	4
3	31563988	638	5
3	31614874	639	4
3	31665684	640	4
3	31716787	641	11
3	31767856	642	5
3	31818923	643	4
3	31869919	644	6
3	31921298	645	4
3	31972409	646	3
3	32023394	647	6
3	32074657	648	5
3	32125749	649	8
3	32176606	650	7
3	32227589	651	9
3	32277979	652	8
3	32329121	653	4
3	32379906	654	1
3	32430597	655	10
3	32481351	656	4
3	32532071	657	0
3	32582628	658	6
3	32633451	659	4
3	32684524	660	6
3	32735407	661	6
3	32785811	662	3
3	32836793	663	2
3	32887702	664	4
3	32938769	665	1
3	32989878	666	2
3	33041039	667	2
3	33092019	668	0
3	33143204	669	2
3	33194195	670	4
3	33245446	671	9
3	33295839	672	4
3	33346933	673	1
3	33397784	674	3
3	33448895	675	4
3	33499922	676	2
3	33551050	677	0
3	33602588	678	3
3	33653612	679	2
3	33705263	680	4
3	33756180	681	6
3	33807605	682	3
3	33858724	683	7
3	33909920	684	7
3	33960857	685	7
3	34011481	686	4
3	34062483	687	5
3	34113474	688	1
3	34164694	689	2
3	34215596	690	0
3	34266750	691	2
3	34317627	692	2
3	34368633	693	0
3	34419661	694	5
3	34470779	695	3
3	34521832	696	2
3	34573077	697	1
3	34624085	698	2
3	34675462	699	10
3	34725861	700	7
3	34776769	701	2
3	34827736	702	4
3	34878500	703	3
3	34929205	704	1
3	34980141	705	2
3	35031130	706	4
3	35082243	707	3
3	35133184	708	4
3	35184051	709	1
3	35235167	710	5
3	35286042	711	1
3	35336694	712	4
3	35387664	713	2
3	35437891	714	3
3	35488851	715	2
3	35539596	716	1
3	35590605	717	1
3	35641468	718	4
3	35692433	719	6
3	35743330	720	0
3	35793988	721	4
3	35845143	722	3
3	35895822	723	6
3	35946975	724	1
3	35997941	725	6
3	36048716	726	4
3	36099873	727	0
3	36150877	728	6
3	36202101	729	4
3	36253154	730	3
3	36304578	731	4
3	36355666	732	6
3	36406742	733	2
3	36458178	734	4
3	36509686	735	2
3	36560683	736	3
3	36611894	737	4
3	36662840	738	6
3	36714076	739	4
3	36765099	740	2
3	36816320	741	1
3	36867583	742	2
3	36918726	743	1
3	36969794	744	5
3	37021079	745	3
3	37072273	746	2
3	37123487	747	6
3	37174787	748	2
3	37226087	749	4
3	37277066	750	4
3	37328199	751	4
3	37379530	752	1
3	37430673	753	7
3	37481432	754	10
3	37532735	755	4
3	37583651	756	3
3	37634969	757	5
3	37686376	758	2
3	37737431	759	2
3	37788681	760	5
3	37840002	761	8
3	37891176	762	4
3	37942500	763	1
3	37993787	764	4
3	38045040	765	6
3	38096339	766	9
3	38147568	767	4
3	38198836	768	1
3	38250243	769	0
3	38301526	770	3
3	38352562	771	5
3	38403779	772	1
3	38455211	773	3
3	38506408	774	6
3	38557467	775	1
3	38608772	776	0
3	38660140	777	4
3	38711475	778	5
3	38762514	779	5
3	38813941	780	4
3	38865165	781	8
3	38916651	782	2
3	38967339	783	5
3	39018677	784	3
3	39069978	785	5
3	39121328	786	5
3	39172343	787	1
3	39223668	788	3
3	39275027	789	3
3	39326341	790	4
3	39377474	791	3
3	39428677	792	1
3	39480021	793	3
3	39531407	794	2
3	39582127	795	3
3	39633494	796	2
3	39684033	797	1
3	39735108	798	3
3	39786108	799	12
3	39837208	800	0
3	39887873	801	4
3	39938642	802	4
3	39989257	803	1
3	40040136	804	3
3	40090718	805	1
3	40141254	806	2
3	40191885	807	0
3	40242645	808	2
3	40293080	809	1
3	40343398	810	0
3	40394142	811	2
3	40444708	812	0
3	40495472	813	2
3	40546002	814	3
3	40596816	815	0
3	40647523	816	1
3	40697914	817	0
3	40748702	818	3
3	40799600	819	4
3	40850207	820	4
3	40901046	821	2
3	40951943	822	1
3	41002887	823	2
3	41053906	824	0
3	41104723	825	5
3	41155719	826	0
3	41206609	827	2
3	41257456	828	3
3	41308502	829	2
3	41359345	830	5
3	41410009	831	3
3	41460562	832	1
3	41511349	833	5
3	41561869	834	4
3	41612488	835	3
3	41663173	836	2
3	41713832	837	1
3	41764484	838	3
3	41815061	839	0
3	41865497	840	1
3	41916302	841	0
3	41966713	842	0
3	42017146	843	2
3	42067868	844	2
3	42118298	845	0
3	42168631	846	1
3	42219211	847	2
3	42269899	848	0
3	42320228	849	0
3	42370943	850	0
3	42421620	851	0
3	42471976	852	0
3	42522841	853	1
3	42573796	854	1
3	42624359	855	0
3	42675007	856	1
3	42725804	857	1
3	42776585	858	2
3	42827042	859	1
3	42877680	860	1
3	42928363	861	1
3	42978944	862	0
3	43029609	863	0
3	43080016	864	4
3	43130649	865	2
3	43181256	866	1
3	43231688	867	2
3	43282029	868	1
3	43332428	869	0
3	43382962	870	3
3	43433626	871	0
3	43484308	872	1
3	43534701	873	0
3	43585102	874	3
3	43635978	875	1
3	43686417	876	0
3	43736712	877	0
3	43787651	878	4
3	43838485	879	2
3	43888700	880	0
3	43939556	881	0
3	43990169	882	3
3	44040874	883	2
3	44091622	884	4
3	44142391	885	2
3	44193157	886	2
3	44243861	887	0
3	44294631	888	3
3	44345024	889	1
3	44395370	890	0
3	44446308	891	0
3	44497025	892	4
3	44547811	893	1
3	44598410	894	0
3	44649258	895	1
3	44700200	896	5
3	44751029	897	2
3	44801710	898	2
3	44852290	899	6
3	44902820	900	3
3	44953517	901	6
3	45003890	902	4
3	45054623	903	0
3	45104944	904	2
3	45155446	905	0
3	45205672	906	1
3	45256285	907	3
3	45306952	908	2
3	45357514	909	3
3	45407841	910	0
3	45458865	911	2
3	45509734	912	1
3	45560189	913	2
3	45610767	914	1
3	45661148	915	1
3	45711869	916	6
3	45762247	917	4
3	45812955	918	1
3	45863324	919	3
3	45913599	920	4
3	45964174	921	1
3	46014585	922	2
3	46065207	923	2
3	46115897	924	3
3	46166354	925	5
3	46217101	926	0
3	46267478	927	4
3	46317782	928	0
3	46368473	929	1
3	46419134	930	1
3	46469423	931	6
3	46520112	932	1
3	46570583	933	2
3	46621228	934	2
3	46671869	935	1
3	46722301	936	5
3	46773143	937	3
3	46823416	938	2
3	46873983	939	2
3	46924744	940	2
3	46975709	941	2
3	47026624	942	2
3	47077579	943	2
3	47128554	944	0
3	47179349	945	7
3	47229966	946	1
3	47280736	947	1
3	47331500	948	2
3	47382458	949	2
3	47433121	950	4
3	47484279	951	4
3	47535001	952	1
3	47586032	953	1
3	47636981	954	0
3	47687840	955	2
3	47739101	956	1
3	47789800	957	1
3	47840713	958	2
3	47891683	959	2
3	47942322	960	1
3	47992971	961	2
3	48043555	962	5
3	48094044	963	1
3	48145063	964	4
3	48196030	965	3
3	48247171	966	2
3	48297993	967	2
3	48348824	968	1
3	48399626	969	3
3	48450186	970	3
3	48500807	971	7
3	48551470	972	0
3	48602454	973	1
3	48653083	974	0
3	48703874	975	3
3	48754737	976	2
3	48805577	977	0
3	48856241	978	0
3	48907052	979	1
3	48957622	980	0
3	49008731	981	4
3	49058964	982	0
3	49109641	983	1
3	49160525	984	0
3	49211290	985	0
3	49262475	986	1
3	49313384	987	1
3	49364126	988	1
3	49414803	989	1
3	49465744	990	1
3	49516450	991	1
3	49566869	992	2
3	49617582	993	0
3	49668479	994	0
3	49719282	995	0
3	49769891	996	0
3	49820507	997	2
3	49871214	998	1
3	49921733	999	2
4	25538394	520	0.033385829805474
4	25589691	521	0.033315711058778
4	25640938	522	0.033247640242499
4	25692003	523	0.033181594075946
4	25743164	524	0.033118657671948
4	25794241	525	0.033050758565448
4	25845285	526	0.032994223393828
4	25896362	527	0.032927477871063
4	25947125	528	0.03287141475991
4	25998250	529	0.032815190448258
4	26048752	530	0.032764050673554
4	26099932	531	0.032697817318204
4	26151242	532	0.03263338584899
4	26202603	533	0.03257328990228
4	26253891	534	0.032535176962134
4	26305270	535	0.032475364161634
4	26356617	536	0.03242917926324
4	26407768	537	0.032365006122858
4	26458921	538	0.032303188028627
4	26510123	539	0.032249237020065
4	26561420	540	0.032191016697296