version 2
run PerfectCC-2-20100909-20:06:49-2564
attr configname PerfectCC
attr datetime 20100909-20:06:49
attr experiment PerfectCC
attr inifile D:/Developement/Oversim2/multic/simulations/omnetpp.ini
attr iterationvars $rateIncoming=200000
attr iterationvars2 "$rateIncoming=200000, $repetition=0"
attr measurement $rateIncoming=200000
attr network oversim.underlay.simpleunderlay.SimpleUnderlayNetwork
attr processid 2564
attr rateIncoming 200000
attr repetition 0
attr replication #0
attr resultdir results
attr runnumber 2
attr seedset 2

vector 1  SimpleUnderlayNetwork.globalObserver.globalStatistics  incoming_bytes  ETV
vector 2  SimpleUnderlayNetwork.globalObserver.globalStatistics  drops  ETV
vector 3  SimpleUnderlayNetwork.globalObserver.globalStatistics  delayed_acks  ETV
vector 4  SimpleUnderlayNetwork.globalObserver.globalStatistics  timetotimeouts  ETV
vector 5  SimpleUnderlayNetwork.globalObserver.globalStatistics  rate  ETV
vector 6  SimpleUnderlayNetwork.globalObserver.globalStatistics  "GlobalNodeList: Number of nodes"  ETV
vector 7  SimpleUnderlayNetwork.globalObserver.globalStatistics  "GlobalNodeList: Number of bootstrapped malicious nodes"  ETV
1	30894639	519	43248
1	30956010	520	43036
1	31016938	521	42294
1	31078888	522	44679
1	31140455	523	43460
1	31202088	524	43619
1	31263269	525	42877
1	31324926	526	43937
1	31386408	527	43672
1	31447860	528	43407
1	31509394	529	43990
1	31570367	530	41976
1	31632098	531	44255
1	31693281	532	42453
1	31753904	533	41817
1	31815029	534	42771
1	31875903	535	42082
1	31937086	536	43142
1	31998292	537	42930
1	32059377	538	42400
1	32120709	539	43301
1	32182049	540	43407
1	32243775	541	44202
1	32305057	542	42877
1	32367284	543	45156
1	32428860	544	43460
1	32490144	545	42983
1	32551727	546	43990
1	32613097	547	42983
1	32674538	548	43301
1	32735443	549	42347
1	32796754	550	43142
1	32857881	551	42559
1	32918857	552	42400
1	32980122	553	43089
1	33041232	554	42453
1	33102469	555	42983
1	33163433	556	42506
1	33225040	557	43884
1	33286537	558	43407
1	33347433	559	41605
1	33409030	560	43990
1	33470319	561	42824
1	33531943	562	43778
1	33593492	563	43937
1	33654772	564	42824
1	33716211	565	43619
1	33777715	566	43513
1	33838985	567	42983
1	33899881	568	41923
1	33960861	569	42135
1	34022526	570	44308
1	34084142	571	43619
1	34145273	572	42718
1	34206676	573	43672
1	34267810	574	42612
1	34328953	575	42718
1	34390251	576	43301
1	34451940	577	43990
1	34513104	578	42771
1	34574548	579	43831
1	34635961	580	42930
1	34697054	581	42824
1	34758709	582	43831
1	34819333	583	41393
1	34880653	584	43142
1	34942167	585	43725
1	35004138	586	44573
1	35065498	587	43089
1	35126647	588	42877
1	35188697	589	44785
1	35249359	590	41340
1	35310569	591	43301
1	35371919	592	43301
1	35433126	593	42718
1	35493932	594	42347
1	35555708	595	44149
1	35617011	596	43036
1	35678267	597	42930
1	35740193	598	44520
1	35801961	599	43884
1	35862980	600	42453
1	35924390	601	43195
1	35985122	602	41817
1	36046676	603	43937
1	36108127	604	43407
1	36169400	605	43513
1	36230641	606	42824
1	36291629	607	42188
1	36353171	608	43407
1	36414434	609	43089
1	36475892	610	43566
1	36537788	611	44520
1	36599127	612	42930
1	36659691	613	41234
1	36721091	614	43407
1	36782210	615	42400
1	36843200	616	42718
1	36904520	617	43248
1	36965696	618	42930
1	37027057	619	43195
1	37088567	620	43566
1	37149716	621	42453
1	37210706	622	42665
1	37271558	623	42347
1	37333407	624	44467
1	37394471	625	42506
1	37456119	626	43725
1	37517739	627	44096
1	37579023	628	43036
1	37640651	629	43990
1	37702128	630	43460
1	37763567	631	43566
1	37824925	632	43036
1	37886421	633	43513
1	37947998	634	43619
1	38009404	635	43407
1	38071104	636	44308
1	38132684	637	43672
1	38194660	638	44520
1	38255612	639	42347
1	38317062	640	43460
1	38377907	641	42294
1	38439785	642	44520
1	38500861	643	42506
1	38562771	644	44308
1	38623652	645	41976
1	38685103	646	43566
1	38746846	647	43990
1	38808498	648	43778
1	38870633	649	44891
1	38931954	650	43301
1	38993539	651	43831
1	39054700	652	42453
1	39116036	653	43089
1	39177284	654	43248
1	39239199	655	44467
1	39300496	656	42930
1	39362001	657	43619
1	39423415	658	43407
1	39484881	659	43672
1	39546167	660	42824
1	39607269	661	42930
1	39668922	662	43990
1	39729930	663	42347
1	39791429	664	43460
1	39852716	665	43566
1	39914382	666	43884
1	39976133	667	43831
1	40037599	668	43142
1	40098854	669	43301
1	40160627	670	44202
1	40221943	671	42983
1	40283308	672	43301
1	40344448	673	43195
1	40406231	674	44255
1	40468155	675	44520
1	40529603	676	43248
1	40590725	677	42718
1	40652220	678	43248
1	40713483	679	43195
1	40775200	680	43990
1	40837054	681	44520
1	40898116	682	42029
1	40959670	683	43778
1	41021228	684	43725
1	41082443	685	42983
1	41143982	686	43619
1	41206020	687	44785
1	41267665	688	43990
1	41329715	689	44891
1	41391419	690	43831
1	41453515	691	44679
1	41514186	692	41764
1	41576216	693	44891
1	41637668	694	43142
1	41699122	695	43460
1	41760960	696	44149
1	41823225	697	45262
1	41884737	698	43566
1	41946755	699	44626
1	42007680	700	42029
1	42068894	701	43248
1	42130091	702	42930
1	42191475	703	43354
1	42252863	704	43354
1	42314157	705	42877
1	42375472	706	43354
1	42437058	707	43672
1	42498736	708	43778
1	42559169	709	41234
1	42621192	710	44891
1	42681937	711	41711
1	42744158	712	45262
1	42805747	713	43460
1	42867226	714	43460
1	42928787	715	43672
1	42990287	716	43301
1	43051343	717	42718
1	43113036	718	43725
1	43174391	719	43301
1	43235705	720	43142
1	43297307	721	43884
1	43358776	722	43619
1	43420340	723	43725
1	43481809	724	43354
1	43543384	725	43937
1	43605628	726	45103
1	43666616	727	42082
1	43728907	728	45262
1	43790170	729	42877
1	43852094	730	44467
1	43913595	731	43566
1	43975356	732	43884
1	44036542	733	42930
1	44098028	734	43354
1	44159066	735	42877
1	44220429	736	43142
1	44282027	737	43884
1	44343902	738	44096
1	44405580	739	43725
1	44467320	740	44043
1	44529083	741	43990
1	44590062	742	42347
1	44651874	743	44573
1	44713873	744	44573
1	44775109	745	42612
1	44837135	746	44679
1	44898612	747	43301
1	44960524	748	44679
1	45022266	749	43831
1	45083453	750	42930
1	45145213	751	43831
1	45206851	752	43884
1	45268453	753	43513
1	45329992	754	43831
1	45391741	755	44202
1	45453330	756	43725
1	45514284	757	42347
1	45576170	758	44308
1	45636822	759	41393
1	45698600	760	44308
1	45760888	761	45368
1	45822536	762	43513
1	45883999	763	43301
1	45945487	764	43778
1	46006734	765	42877
1	46068556	766	44732
1	46130054	767	43248
1	46191249	768	42824
1	46253010	769	43990
1	46314968	770	44838
1	46376632	771	43672
1	46438153	772	43460
1	46499563	773	43301
1	46561333	774	44202
1	46622470	775	42559
1	46683839	776	43248
1	46745748	777	44308
1	46807072	778	42930
1	46868807	779	44043
1	46930892	780	44679
1	46992130	781	43354
1	47054370	782	45050
1	47115956	783	43831
1	47177410	784	43301
1	47239071	785	44096
1	47300206	786	42983
1	47361846	787	43301
1	47422807	788	42241
1	47483817	789	42294
1	47545055	790	43142
1	47606567	791	44043
1	47667820	792	42877
1	47729605	793	44255
1	47790533	794	42082
1	47851427	795	42188
1	47913045	796	43937
1	47973957	797	42294
1	48035797	798	44308
1	48097329	799	43513
1	48158461	800	42718
1	48220183	801	44149
1	48281575	802	43248
1	48343077	803	43460
1	48404071	804	42135
1	48465392	805	43248
1	48527311	806	44626
1	48588707	807	43301
1	48650207	808	43460
1	48711325	809	42506
1	48772930	810	43884
1	48834342	811	43354
1	48895706	812	43301
1	48956975	813	42824
1	49018407	814	43354
1	49080205	815	44573
1	49141536	816	43142
1	49203140	817	43725
1	49264541	818	42930
1	49326376	819	44520
1	49388032	820	43725
1	49449873	821	44520
1	49511732	822	44520
1	49573425	823	43619
1	49634949	824	43195
1	49696657	825	44149
1	49758027	826	43142
1	49819682	827	44096
1	49881780	828	44785
1	49943125	829	42930
1	50004812	830	43778
1	50066202	831	43619
1	50128353	832	44997
1	50189409	833	42294
1	50250524	834	42877
1	50312347	835	44149
1	50373992	836	44043
1	50435458	837	43301
1	50497209	838	44043
1	50558609	839	43354
1	50620249	840	43513
1	50681881	841	43990
1	50743164	842	43142
1	50804620	843	43619
1	50866261	844	43831
1	50927191	845	42135
1	50988645	846	43672
1	51050446	847	44096
1	51111905	848	43354
1	51173751	849	44255
1	51234970	850	42771
1	51296327	851	43301
1	51357764	852	43566
1	51419112	853	42930
1	51480709	854	43884
1	51542196	855	43460
1	51603490	856	42983
1	51664889	857	43460
1	51726610	858	43884
1	51788011	859	43407
1	51848616	860	41923
1	51910122	861	43619
1	51971355	862	42665
1	52032535	863	42877
1	52093767	864	43089
1	52155431	865	43884
1	52216411	866	42241
1	52277557	867	42930
1	52338871	868	43566
1	52400478	869	43619
1	52461277	870	41976
1	52522905	871	43725
1	52584028	872	42824
1	52645947	873	44679
1	52707436	874	43513
1	52768954	875	43566
1	52830005	876	42612
1	52891691	877	43937
1	52953204	878	43566
1	53014545	879	43354
1	53076393	880	43990
1	53137193	881	41976
1	53198914	882	44414
1	53260287	883	42983
1	53321274	884	42559
1	53383308	885	44785
1	53444298	886	42135
1	53506048	887	44361
1	53567578	888	43619
1	53629868	889	45050
1	53691340	890	43301
1	53752828	891	43725
1	53813999	892	42665
1	53875734	893	44096
1	53937475	894	43990
1	53998998	895	43407
1	54060590	896	43672
1	54121866	897	43566
1	54183524	898	43778
1	54244186	899	41764
1	54305450	900	43195
1	54367080	901	43937
1	54428642	902	43513
1	54490390	903	43884
1	54551321	904	42135
1	54612434	905	42824
1	54673914	906	43460
1	54735118	907	42877
1	54796704	908	43672
1	54857621	909	42241
1	54918505	910	42453
1	54979949	911	44043
1	55041581	912	43513
1	55102650	913	42665
1	55164364	914	44096
1	55225937	915	43672
1	55287296	916	42983
1	55348138	917	42294
1	55409532	918	43354
1	55471378	919	44308
1	55531970	920	41446
1	55593748	921	44255
1	55654287	922	41181
1	55715504	923	42983
1	55776702	924	42877
1	55838151	925	43513
1	55900109	926	44679
1	55961526	927	43354
1	56022504	928	42241
1	56084007	929	43566
1	56145272	930	42877
1	56206542	931	43195
1	56268375	932	44414
1	56329793	933	43460
1	56391579	934	43937
1	56453375	935	44361
1	56515294	936	44202
1	56576311	937	42241
1	56637969	938	44255
1	56699856	939	44414
1	56761841	940	44679
1	56823892	941	44520
1	56885413	942	43672
1	56947032	943	43407
1	57008578	944	43566
1	57070586	945	44679
1	57131981	946	42771
1	57193096	947	43195
1	57254945	948	44414
1	57316487	949	43460
1	57377889	950	43089
1	57439438	951	43725
1	57500543	952	42718
1	57562131	953	43566
1	57623259	954	42559
1	57685533	955	45474
1	57746661	956	42718
1	57808465	957	44096
1	57869637	958	42612
1	57931609	959	44573
1	57993063	960	43566
1	58055017	961	44308
1	58116546	962	43301
1	58177764	963	43248
1	58239595	964	44202
1	58300310	965	41552
1	58361589	966	43195
1	58422956	967	43248
1	58484386	968	43460
1	58545589	969	42930
1	58606878	970	43195
1	58668143	971	43301
1	58729644	972	43831
1	58791062	973	43354
1	58852455	974	43195
1	58913557	975	42453
1	58975128	976	43831
1	59035084	977	39909
1	59096340	978	43195
1	59157844	979	43937
1	59219332	980	43089
1	59280085	981	42029
1	59341561	982	43672
1	59402770	983	43036
1	59463653	984	41870
1	59525041	985	43460
1	59586713	986	43990
1	59648054	987	43142
1	59709100	988	42612
1	59770694	989	43884
1	59831794	990	42665
1	59892775	991	42400
1	59953788	992	42347
1	60014994	993	42824
1	60076344	994	43407
1	60137789	995	43566
1	60199369	996	43884
1	60261197	997	44255
1	60322295	998	42771
1	60383651	999	43195
2	30894639	519	25
2	30956010	520	49
2	31016938	521	13
2	31078888	522	24
2	31140455	523	17
2	31202088	524	42
2	31263269	525	6
2	31324926	526	37
2	31386408	527	13
2	31447860	528	23
2	31509394	529	35
2	31570367	530	13
2	31632098	531	31
2	31693281	532	41
2	31753904	533	19
2	31815029	534	35
2	31875903	535	15
2	31937086	536	21
2	31998292	537	28
2	32059377	538	28
2	32120709	539	13
2	32182049	540	3
2	32243775	541	52
2	32305057	542	20
2	32367284	543	28
2	32428860	544	32
2	32490144	545	7
2	32551727	546	27
2	32613097	547	30
2	32674538	548	40
2	32735443	549	33
2	32796754	550	38
2	32857881	551	34
2	32918857	552	41
2	32980122	553	31
2	33041232	554	24
2	33102469	555	26
2	33163433	556	19
2	33225040	557	10
2	33286537	558	56
2	33347433	559	17
2	33409030	560	41
2	33470319	561	19
2	33531943	562	29
2	33593492	563	44
2	33654772	564	21
2	33716211	565	26
2	33777715	566	31
2	33838985	567	30
2	33899881	568	34
2	33960861	569	26
2	34022526	570	13
2	34084142	571	33
2	34145273	572	16
2	34206676	573	30
2	34267810	574	25
2	34328953	575	23
2	34390251	576	16
2	34451940	577	28
2	34513104	578	11
2	34574548	579	22
2	34635961	580	29
2	34697054	581	14
2	34758709	582	44
2	34819333	583	27
2	34880653	584	28
2	34942167	585	18
2	35004138	586	25
2	35065498	587	34
2	35126647	588	10
2	35188697	589	47
2	35249359	590	11
2	35310569	591	6
2	35371919	592	33
2	35433126	593	34
2	35493932	594	6
2	35555708	595	27
2	35617011	596	27
2	35678267	597	20
2	35740193	598	21
2	35801961	599	35
2	35862980	600	25
2	35924390	601	49
2	35985122	602	7
2	36046676	603	16
2	36108127	604	19
2	36169400	605	23
2	36230641	606	25
2	36291629	607	39
2	36353171	608	38
2	36414434	609	20
2	36475892	610	10
2	36537788	611	46
2	36599127	612	53
2	36659691	613	25
2	36721091	614	33
2	36782210	615	23
2	36843200	616	12
2	36904520	617	33
2	36965696	618	23
2	37027057	619	17
2	37088567	620	43
2	37149716	621	24
2	37210706	622	25
2	37271558	623	9
2	37333407	624	35
2	37394471	625	20
2	37456119	626	10
2	37517739	627	17
2	37579023	628	13
2	37640651	629	23
2	37702128	630	25
2	37763567	631	29
2	37824925	632	31
2	37886421	633	18
2	37947998	634	19
2	38009404	635	19
2	38071104	636	14
2	38132684	637	6
2	38194660	638	25
2	38255612	639	16
2	38317062	640	36
2	38377907	641	6
2	38439785	642	41
2	38500861	643	9
2	38562771	644	42
2	38623652	645	17
2	38685103	646	24
2	38746846	647	24
2	38808498	648	13
2	38870633	649	26
2	38931954	650	11
2	38993539	651	40
2	39054700	652	32
2	39116036	653	22
2	39177284	654	7
2	39239199	655	18
2	39300496	656	21
2	39362001	657	16
2	39423415	658	21
2	39484881	659	18
2	39546167	660	24
2	39607269	661	7
2	39668922	662	20
2	39729930	663	18
2	39791429	664	20
2	39852716	665	18
2	39914382	666	18
2	39976133	667	31
2	40037599	668	33
2	40098854	669	9
2	40160627	670	22
2	40221943	671	20
2	40283308	672	13
2	40344448	673	11
2	40406231	674	14
2	40468155	675	33
2	40529603	676	30
2	40590725	677	26
2	40652220	678	42
2	40713483	679	10
2	40775200	680	20
2	40837054	681	33
2	40898116	682	19
2	40959670	683	17
2	41021228	684	21
2	41082443	685	18
2	41143982	686	18
2	41206020	687	17
2	41267665	688	10
2	41329715	689	25
2	41391419	690	9
2	41453515	691	48
2	41514186	692	11
2	41576216	693	23
2	41637668	694	21
2	41699122	695	28
2	41760960	696	14
2	41823225	697	30
2	41884737	698	11
2	41946755	699	36
2	42007680	700	14
2	42068894	701	25
2	42130091	702	12
2	42191475	703	22
2	42252863	704	18
2	42314157	705	24
2	42375472	706	14
2	42437058	707	23
2	42498736	708	50
2	42559169	709	11
2	42621192	710	57
2	42681937	711	9
2	42744158	712	35
2	42805747	713	24
2	42867226	714	20
2	42928787	715	30
2	42990287	716	32
2	43051343	717	17
2	43113036	718	23
2	43174391	719	22
2	43235705	720	12
2	43297307	721	20
2	43358776	722	16
2	43420340	723	23
2	43481809	724	17
2	43543384	725	15
2	43605628	726	63
2	43666616	727	10
2	43728907	728	54
2	43790170	729	12
2	43852094	730	27
2	43913595	731	18
2	43975356	732	35
2	44036542	733	19
2	44098028	734	28
2	44159066	735	12
2	44220429	736	27
2	44282027	737	21
2	44343902	738	27
2	44405580	739	16
2	44467320	740	21
2	44529083	741	37
2	44590062	742	11
2	44651874	743	13
2	44713873	744	49
2	44775109	745	22
2	44837135	746	31
2	44898612	747	16
2	44960524	748	17
2	45022266	749	39
2	45083453	750	23
2	45145213	751	28
2	45206851	752	19
2	45268453	753	23
2	45329992	754	8
2	45391741	755	21
2	45453330	756	30
2	45514284	757	21
2	45576170	758	61
2	45636822	759	12
2	45698600	760	7
2	45760888	761	29
2	45822536	762	31
2	45883999	763	24
2	45945487	764	19
2	46006734	765	11
2	46068556	766	16
2	46130054	767	35
2	46191249	768	22
2	46253010	769	16
2	46314968	770	23
2	46376632	771	29
2	46438153	772	19
2	46499563	773	14
2	46561333	774	37
2	46622470	775	28
2	46683839	776	13
2	46745748	777	46
2	46807072	778	13
2	46868807	779	12
2	46930892	780	36
2	46992130	781	10
2	47054370	782	23
2	47115956	783	22
2	47177410	784	10
2	47239071	785	33
2	47300206	786	16
2	47361846	787	42
2	47422807	788	45
2	47483817	789	18
2	47545055	790	17
2	47606567	791	22
2	47667820	792	14
2	47729605	793	29
2	47790533	794	31
2	47851427	795	24
2	47913045	796	37
2	47973957	797	10
2	48035797	798	23
2	48097329	799	41
2	48158461	800	7
2	48220183	801	15
2	48281575	802	19
2	48343077	803	39
2	48404071	804	20
2	48465392	805	12
2	48527311	806	26
2	48588707	807	27
2	48650207	808	27
2	48711325	809	15
2	48772930	810	19
2	48834342	811	26
2	48895706	812	20
2	48956975	813	31
2	49018407	814	6
2	49080205	815	32
2	49141536	816	29
2	49203140	817	28
2	49264541	818	14
2	49326376	819	28
2	49388032	820	23
2	49449873	821	2
2	49511732	822	31
2	49573425	823	50
2	49634949	824	11
2	49696657	825	29
2	49758027	826	17
2	49819682	827	11
2	49881780	828	31
2	49943125	829	21
2	50004812	830	37
2	50066202	831	8
2	50128353	832	33
2	50189409	833	24
2	50250524	834	13
2	50312347	835	20
2	50373992	836	23
2	50435458	837	17
2	50497209	838	25
2	50558609	839	24
2	50620249	840	22
2	50681881	841	23
2	50743164	842	16
2	50804620	843	13
2	50866261	844	38
2	50927191	845	14
2	50988645	846	11
2	51050446	847	37
2	51111905	848	18
2	51173751	849	36
2	51234970	850	22
2	51296327	851	30
2	51357764	852	22
2	51419112	853	15
2	51480709	854	21
2	51542196	855	24
2	51603490	856	24
2	51664889	857	22
2	51726610	858	17
2	51788011	859	34
2	51848616	860	16
2	51910122	861	26
2	51971355	862	31
2	52032535	863	18
2	52093767	864	9
2	52155431	865	33
2	52216411	866	13
2	52277557	867	10
2	52338871	868	4
2	52400478	869	50
2	52461277	870	10
2	52522905	871	27
2	52584028	872	12
2	52645947	873	26
2	52707436	874	20
2	52768954	875	33
2	52830005	876	6
2	52891691	877	33
2	52953204	878	30
2	53014545	879	12
2	53076393	880	43
2	53137193	881	9
2	53198914	882	10
2	53260287	883	38
2	53321274	884	11
2	53383308	885	34
2	53444298	886	13
2	53506048	887	24
2	53567578	888	15
2	53629868	889	41
2	53691340	890	16
2	53752828	891	27
2	53813999	892	29
2	53875734	893	19
2	53937475	894	23
2	53998998	895	14
2	54060590	896	17
2	54121866	897	7
2	54183524	898	44
2	54244186	899	19
2	54305450	900	13
2	54367080	901	24
2	54428642	902	13
2	54490390	903	31
2	54551321	904	21
2	54612434	905	17
2	54673914	906	38
2	54735118	907	14
2	54796704	908	31
2	54857621	909	17
2	54918505	910	6
2	54979949	911	12
2	55041581	912	49
2	55102650	913	9
2	55164364	914	17
2	55225937	915	17
2	55287296	916	46
2	55348138	917	18
2	55409532	918	10
2	55471378	919	43
2	55531970	920	13
2	55593748	921	48
2	55654287	922	21
2	55715504	923	27
2	55776702	924	31
2	55838151	925	11
2	55900109	926	19
2	55961526	927	33
2	56022504	928	22
2	56084007	929	28
2	56145272	930	25
2	56206542	931	11
2	56268375	932	22
2	56329793	933	19
2	56391579	934	23
2	56453375	935	24
2	56515294	936	47
2	56576311	937	10
2	56637969	938	27
2	56699856	939	21
2	56761841	940	10
2	56823892	941	44
2	56885413	942	21
2	56947032	943	24
2	57008578	944	18
2	57070586	945	37
2	57131981	946	28
2	57193096	947	9
2	57254945	948	19
2	57316487	949	27
2	57377889	950	25
2	57439438	951	42
2	57500543	952	25
2	57562131	953	45
2	57623259	954	3
2	57685533	955	34
2	57746661	956	20
2	57808465	957	39
2	57869637	958	12
2	57931609	959	34
2	57993063	960	22
2	58055017	961	37
2	58116546	962	34
2	58177764	963	7
2	58239595	964	36
2	58300310	965	18
2	58361589	966	15
2	58422956	967	14
2	58484386	968	22
2	58545589	969	14
2	58606878	970	21
2	58668143	971	17
2	58729644	972	29
2	58791062	973	27
2	58852455	974	20
2	58913557	975	14
2	58975128	976	65
2	59035084	977	18
2	59096340	978	16
2	59157844	979	15
2	59219332	980	47
2	59280085	981	7
2	59341561	982	18
2	59402770	983	32
2	59463653	984	24
2	59525041	985	17
2	59586713	986	22
2	59648054	987	31
2	59709100	988	4
2	59770694	989	27
2	59831794	990	23
2	59892775	991	25
2	59953788	992	34
2	60014994	993	24
2	60076344	994	16
2	60137789	995	15
2	60199369	996	13
2	60261197	997	32
2	60322295	998	12
2	60383651	999	32
3	30894639	519	2
3	30956010	520	5
3	31016938	521	2
3	31078888	522	7
3	31140455	523	2
3	31202088	524	3
3	31263269	525	4
3	31324926	526	6
3	31386408	527	3
3	31447860	528	2
3	31509394	529	4
3	31570367	530	5
3	31632098	531	10
3	31693281	532	7
3	31753904	533	5
3	31815029	534	5
3	31875903	535	1
3	31937086	536	3
3	31998292	537	5
3	32059377	538	5
3	32120709	539	3
3	32182049	540	9
3	32243775	541	3
3	32305057	542	3
3	32367284	543	8
3	32428860	544	3
3	32490144	545	7
3	32551727	546	6
3	32613097	547	7
3	32674538	548	3
3	32735443	549	1
3	32796754	550	4
3	32857881	551	6
3	32918857	552	3
3	32980122	553	5
3	33041232	554	2
3	33102469	555	2
3	33163433	556	3
3	33225040	557	6
3	33286537	558	6
3	33347433	559	7
3	33409030	560	2
3	33470319	561	3
3	33531943	562	3
3	33593492	563	5
3	33654772	564	7
3	33716211	565	1
3	33777715	566	5
3	33838985	567	8
3	33899881	568	7
3	33960861	569	3
3	34022526	570	2
3	34084142	571	9
3	34145273	572	3
3	34206676	573	2
3	34267810	574	5
3	34328953	575	9
3	34390251	576	4
3	34451940	577	10
3	34513104	578	5
3	34574548	579	7
3	34635961	580	10
3	34697054	581	0
3	34758709	582	6
3	34819333	583	2
3	34880653	584	1
3	34942167	585	1
3	35004138	586	2
3	35065498	587	5
3	35126647	588	9
3	35188697	589	5
3	35249359	590	2
3	35310569	591	3
3	35371919	592	3
3	35433126	593	3
3	35493932	594	6
3	35555708	595	5
3	35617011	596	5
3	35678267	597	2
3	35740193	598	5
3	35801961	599	10
3	35862980	600	6
3	35924390	601	2
3	35985122	602	1
3	36046676	603	1
3	36108127	604	6
3	36169400	605	7
3	36230641	606	3
3	36291629	607	5
3	36353171	608	2
3	36414434	609	7
3	36475892	610	5
3	36537788	611	1
3	36599127	612	4
3	36659691	613	3
3	36721091	614	5
3	36782210	615	6
3	36843200	616	5
3	36904520	617	5
3	36965696	618	7
3	37027057	619	5
3	37088567	620	6
3	37149716	621	3
3	37210706	622	1
3	37271558	623	5
3	37333407	624	3
3	37394471	625	3
3	37456119	626	4
3	37517739	627	3
3	37579023	628	7
3	37640651	629	9
3	37702128	630	3
3	37763567	631	2
3	37824925	632	5
3	37886421	633	3
3	37947998	634	5
3	38009404	635	5
3	38071104	636	3
3	38132684	637	2
3	38194660	638	7
3	38255612	639	3
3	38317062	640	5
3	38377907	641	7
3	38439785	642	5
3	38500861	643	1
3	38562771	644	8
3	38623652	645	9
3	38685103	646	3
3	38746846	647	2
3	38808498	648	5
3	38870633	649	7
3	38931954	650	0
3	38993539	651	5
3	39054700	652	11
3	39116036	653	3
3	39177284	654	5
3	39239199	655	6
3	39300496	656	6
3	39362001	657	4
3	39423415	658	8
3	39484881	659	6
3	39546167	660	5
3	39607269	661	4
3	39668922	662	4
3	39729930	663	3
3	39791429	664	4
3	39852716	665	7
3	39914382	666	1
3	39976133	667	6
3	40037599	668	3
3	40098854	669	2
3	40160627	670	5
3	40221943	671	4
3	40283308	672	3
3	40344448	673	2
3	40406231	674	7
3	40468155	675	9
3	40529603	676	7
3	40590725	677	5
3	40652220	678	9
3	40713483	679	3
3	40775200	680	7
3	40837054	681	6
3	40898116	682	5
3	40959670	683	5
3	41021228	684	5
3	41082443	685	6
3	41143982	686	11
3	41206020	687	6
3	41267665	688	6
3	41329715	689	6
3	41391419	690	6
3	41453515	691	4
3	41514186	692	5
3	41576216	693	4
3	41637668	694	6
3	41699122	695	7
3	41760960	696	5
3	41823225	697	4
3	41884737	698	4
3	41946755	699	5
3	42007680	700	3
3	42068894	701	2
3	42130091	702	3
3	42191475	703	4
3	42252863	704	2
3	42314157	705	7
3	42375472	706	4
3	42437058	707	6
3	42498736	708	5
3	42559169	709	6
3	42621192	710	8
3	42681937	711	2
3	42744158	712	5
3	42805747	713	12
3	42867226	714	6
3	42928787	715	5
3	42990287	716	6
3	43051343	717	7
3	43113036	718	8
3	43174391	719	3
3	43235705	720	3
3	43297307	721	12
3	43358776	722	2
3	43420340	723	9
3	43481809	724	4
3	43543384	725	3
3	43605628	726	6
3	43666616	727	8
3	43728907	728	7
3	43790170	729	3
3	43852094	730	5
3	43913595	731	7
3	43975356	732	7
3	44036542	733	4
3	44098028	734	9
3	44159066	735	4
3	44220429	736	5
3	44282027	737	14
3	44343902	738	8
3	44405580	739	10
3	44467320	740	7
3	44529083	741	9
3	44590062	742	1
3	44651874	743	3
3	44713873	744	2
3	44775109	745	11
3	44837135	746	9
3	44898612	747	2
3	44960524	748	6
3	45022266	749	3
3	45083453	750	4
3	45145213	751	7
3	45206851	752	9
3	45268453	753	5
3	45329992	754	3
3	45391741	755	12
3	45453330	756	9
3	45514284	757	4
3	45576170	758	4
3	45636822	759	3
3	45698600	760	7
3	45760888	761	3
3	45822536	762	5
3	45883999	763	5
3	45945487	764	6
3	46006734	765	4
3	46068556	766	6
3	46130054	767	7
3	46191249	768	4
3	46253010	769	7
3	46314968	770	6
3	46376632	771	9
3	46438153	772	10
3	46499563	773	7
3	46561333	774	6
3	46622470	775	3
3	46683839	776	3
3	46745748	777	4
3	46807072	778	5
3	46868807	779	3
3	46930892	780	3
3	46992130	781	5
3	47054370	782	9
3	47115956	783	6
3	47177410	784	2
3	47239071	785	6
3	47300206	786	4
3	47361846	787	3
3	47422807	788	3
3	47483817	789	1
3	47545055	790	5
3	47606567	791	4
3	47667820	792	8
3	47729605	793	7
3	47790533	794	5
3	47851427	795	9
3	47913045	796	3
3	47973957	797	3
3	48035797	798	11
3	48097329	799	8
3	48158461	800	6
3	48220183	801	6
3	48281575	802	3
3	48343077	803	5
3	48404071	804	7
3	48465392	805	9
3	48527311	806	9
3	48588707	807	6
3	48650207	808	2
3	48711325	809	1
3	48772930	810	12
3	48834342	811	9
3	48895706	812	3
3	48956975	813	2
3	49018407	814	2
3	49080205	815	11
3	49141536	816	3
3	49203140	817	5
3	49264541	818	4
3	49326376	819	6
3	49388032	820	7
3	49449873	821	7
3	49511732	822	6
3	49573425	823	4
3	49634949	824	1
3	49696657	825	9
3	49758027	826	7
3	49819682	827	8
3	49881780	828	4
3	49943125	829	3
3	50004812	830	3
3	50066202	831	4
3	50128353	832	4
3	50189409	833	3
3	50250524	834	2
3	50312347	835	5
3	50373992	836	0
3	50435458	837	8
3	50497209	838	7
3	50558609	839	1
3	50620249	840	2
3	50681881	841	8
3	50743164	842	5
3	50804620	843	8
3	50866261	844	4
3	50927191	845	3
3	50988645	846	4
3	51050446	847	4
3	51111905	848	6
3	51173751	849	6
3	51234970	850	3
3	51296327	851	10
3	51357764	852	2
3	51419112	853	6
3	51480709	854	4
3	51542196	855	7
3	51603490	856	5
3	51664889	857	1
3	51726610	858	11
3	51788011	859	3
3	51848616	860	0
3	51910122	861	14
3	51971355	862	1
3	52032535	863	4
3	52093767	864	9
3	52155431	865	8
3	52216411	866	5
3	52277557	867	7
3	52338871	868	6
3	52400478	869	2
3	52461277	870	5
3	52522905	871	2
3	52584028	872	0
3	52645947	873	14
3	52707436	874	4
3	52768954	875	1
3	52830005	876	4
3	52891691	877	9
3	52953204	878	4
3	53014545	879	5
3	53076393	880	4
3	53137193	881	4
3	53198914	882	2
3	53260287	883	5
3	53321274	884	8
3	53383308	885	10
3	53444298	886	9
3	53506048	887	2
3	53567578	888	6
3	53629868	889	3
3	53691340	890	4
3	53752828	891	8
3	53813999	892	5
3	53875734	893	2
3	53937475	894	2
3	53998998	895	5
3	54060590	896	8
3	54121866	897	2
3	54183524	898	2
3	54244186	899	7
3	54305450	900	10
3	54367080	901	9
3	54428642	902	16
3	54490390	903	8
3	54551321	904	2
3	54612434	905	8
3	54673914	906	3
3	54735118	907	6
3	54796704	908	5
3	54857621	909	11
3	54918505	910	9
3	54979949	911	3
3	55041581	912	11
3	55102650	913	6
3	55164364	914	4
3	55225937	915	3
3	55287296	916	6
3	55348138	917	11
3	55409532	918	6
3	55471378	919	2
3	55531970	920	3
3	55593748	921	9
3	55654287	922	8
3	55715504	923	6
3	55776702	924	8
3	55838151	925	6
3	55900109	926	4
3	55961526	927	2
3	56022504	928	5
3	56084007	929	2
3	56145272	930	5
3	56206542	931	4
3	56268375	932	7
3	56329793	933	7
3	56391579	934	6
3	56453375	935	9
3	56515294	936	9
3	56576311	937	3
3	56637969	938	3
3	56699856	939	6
3	56761841	940	4
3	56823892	941	4
3	56885413	942	5
3	56947032	943	7
3	57008578	944	6
3	57070586	945	5
3	57131981	946	7
3	57193096	947	4
3	57254945	948	6
3	57316487	949	2
3	57377889	950	3
3	57439438	951	2
3	57500543	952	7
3	57562131	953	5
3	57623259	954	0
3	57685533	955	6
3	57746661	956	3
3	57808465	957	4
3	57869637	958	7
3	57931609	959	3
3	57993063	960	7
3	58055017	961	6
3	58116546	962	13
3	58177764	963	5
3	58239595	964	5
3	58300310	965	11
3	58361589	966	8
3	58422956	967	4
3	58484386	968	3
3	58545589	969	8
3	58606878	970	4
3	58668143	971	3
3	58729644	972	3
3	58791062	973	6
3	58852455	974	0
3	58913557	975	6
3	58975128	976	2
3	59035084	977	3
3	59096340	978	7
3	59157844	979	5
3	59219332	980	9
3	59280085	981	3
3	59341561	982	6
3	59402770	983	4
3	59463653	984	2
3	59525041	985	5
3	59586713	986	6
3	59648054	987	7
3	59709100	988	5
3	59770694	989	5
3	59831794	990	1
3	59892775	991	5
3	59953788	992	5
3	60014994	993	5
3	60076344	994	4
3	60137789	995	7
3	60199369	996	7
3	60261197	997	2
3	60322295	998	3
3	60383651	999	4
4	30894639	519	0.016307560045135
4	30956010	520	0.016275640166242
4	31016938	521	0.016247068326245
4	31078888	522	0.016226387607439
4	31140455	523	0.016198128431653
4	31202088	524	0.01616581263134
4	31263269	525	0.016142268220392
4	31324926	526	0.016117182588336
4	31386408	527	0.01608835613639
4	31447860	528	0.016068198068073
4	31509394	529	0.016042204480035
4	31570367	530	0.016020401334595