version 2
run PerfectCC-0-20100909-19:39:57-1816
attr configname PerfectCC
attr datetime 20100909-19:39:57
attr experiment PerfectCC
attr inifile D:/Developement/Oversim2/multic/simulations/omnetpp.ini
attr iterationvars $rateIncoming=400000
attr iterationvars2 "$rateIncoming=400000, $repetition=0"
attr measurement $rateIncoming=400000
attr network oversim.underlay.simpleunderlay.SimpleUnderlayNetwork
attr processid 1816
attr rateIncoming 400000
attr repetition 0
attr replication #0
attr resultdir results
attr runnumber 0
attr seedset 0

vector 1  SimpleUnderlayNetwork.globalObserver.globalStatistics  incoming_bytes  ETV
vector 2  SimpleUnderlayNetwork.globalObserver.globalStatistics  drops  ETV
vector 3  SimpleUnderlayNetwork.globalObserver.globalStatistics  delayed_acks  ETV
vector 4  SimpleUnderlayNetwork.globalObserver.globalStatistics  timetotimeouts  ETV
vector 5  SimpleUnderlayNetwork.globalObserver.globalStatistics  rate  ETV
vector 6  SimpleUnderlayNetwork.globalObserver.globalStatistics  "GlobalNodeList: Number of nodes"  ETV
vector 7  SimpleUnderlayNetwork.globalObserver.globalStatistics  "GlobalNodeList: Number of bootstrapped malicious nodes"  ETV
1	41992580	517	89305
1	42076057	518	89093
1	42161291	519	91001
1	42245277	520	88669
1	42330406	521	92061
1	42414507	522	89517
1	42497321	523	86496
1	42581990	524	91796
1	42665846	525	88457
1	42748367	526	85701
1	42831840	527	88510
1	42915412	528	88033
1	42999380	529	90100
1	43083719	530	88669
1	43166636	531	87821
1	43250946	532	90471
1	43334483	533	88139
1	43417890	534	87715
1	43502901	535	91849
1	43587412	536	90100
1	43671949	537	90789
1	43755435	538	87715
1	43839539	539	89464
1	43923080	540	87768
1	44006420	541	88457
1	44090493	542	89146
1	44174254	543	89040
1	44258736	544	90100
1	44342692	545	89888
1	44425896	546	87026
1	44509644	547	89305
1	44593017	548	87874
1	44676283	549	88086
1	44760329	550	89464
1	44843766	551	87662
1	44927136	552	87556
1	45010213	553	87768
1	45094053	554	89464
1	45177946	555	88510
1	45262907	556	91849
1	45346068	557	87238
1	45429993	558	89411
1	45514231	559	89941
1	45598575	560	89623
1	45683974	561	91902
1	45767752	562	88404
1	45850953	563	86973
1	45934675	564	89888
1	46018670	565	88881
1	46101538	566	86443
1	46185275	567	88828
1	46268519	568	88775
1	46352968	569	89570
1	46436510	570	88139
1	46520225	571	89517
1	46603964	572	87980
1	46688210	573	89994
1	46771529	574	87132
1	46855871	575	91213
1	46939754	576	88722
1	47024203	577	89729
1	47106785	578	85966
1	47190906	579	90365
1	47274529	580	88669
1	47358443	581	89358
1	47442439	582	88934
1	47528285	583	92591
1	47610375	584	84694
1	47695012	585	91054
1	47779908	586	89782
1	47862942	587	87185
1	47946398	588	88669
1	48030087	589	88722
1	48113688	590	88828
1	48196664	591	86284
1	48279451	592	87609
1	48363876	593	89729
1	48447232	594	87344
1	48531835	595	91531
1	48616576	596	90577
1	48700966	597	91107
1	48785180	598	89517
1	48868571	599	87238
1	48953325	600	90577
1	49036546	601	88139
1	49120968	602	90418
1	49203671	603	86655
1	49288830	604	91478
1	49372249	605	87185
1	49456383	606	90365
1	49540672	607	89623
1	49623925	608	87768
1	49707190	609	87556
1	49791147	610	89411
1	49875445	611	89994
1	49960107	612	90630
1	50045211	613	91372
1	50129289	614	89411
1	50213889	615	90948
1	50298798	616	90259
1	50383251	617	90365
1	50466299	618	86655
1	50550177	619	89411
1	50633868	620	89464
1	50717702	621	88457
1	50801178	622	88457
1	50885592	623	89941
1	50969204	624	88192
1	51053152	625	89411
1	51137033	626	88510
1	51220082	627	87927
1	51304564	628	90630
1	51387298	629	86602
1	51471476	630	89676
1	51556466	631	91478
1	51639948	632	87662
1	51723065	633	87662
1	51806917	634	89941
1	51890357	635	86814
1	51974389	636	89676
1	52057872	637	87980
1	52140494	638	86390
1	52225006	639	91478
1	52308608	640	87185
1	52391744	641	87768
1	52476725	642	92220
1	52559446	643	85701
1	52643729	644	89994
1	52728234	645	89941
1	52812400	646	90100
1	52897029	647	90577
1	52981730	648	91372
1	53065054	649	86231
1	53148714	650	89994
1	53233631	651	90471
1	53317518	652	90259
1	53401253	653	87397
1	53484930	654	88775
1	53568593	655	88616
1	53651933	656	87662
1	53735977	657	90312
1	53819590	658	87238
1	53904105	659	90577
1	53987878	660	88457
1	54072507	661	90206
1	54155449	662	87450
1	54239776	663	89782
1	54323989	664	90259
1	54408041	665	89199
1	54492180	666	89570
1	54576414	667	90577
1	54661540	668	91425
1	54745258	669	88351
1	54829322	670	90206
1	54913674	671	88351
1	54997649	672	89782
1	55080125	673	85807
1	55164638	674	90577
1	55247771	675	87026
1	55331443	676	89570
1	55414923	677	87821
1	55498732	678	89782
1	55583882	679	91107
1	55667224	680	87980
1	55751823	681	90418
1	55835724	682	88669
1	55920862	683	91690
1	56005254	684	89941
1	56089487	685	89994
1	56173870	686	90153
1	56259050	687	91160
1	56342528	688	88775
1	56427624	689	91372
1	56511217	690	88828
1	56595802	691	90365
1	56678680	692	85754
1	56762479	693	90418
1	56846578	694	89199
1	56930761	695	89411
1	57014852	696	88722
1	57099771	697	91531
1	57184851	698	91584
1	57268160	699	87768
1	57352977	700	90895
1	57436016	701	87132
1	57520263	702	90471
1	57603848	703	87026
1	57688042	704	90789
1	57771322	705	87980
1	57854706	706	86920
1	57938181	707	89464
1	58023109	708	90842
1	58106734	709	88775
1	58190537	710	89093
1	58274481	711	88828
1	58358107	712	88510
1	58442488	713	90312
1	58527035	714	90524
1	58610833	715	88828
1	58695480	716	89517
1	58777866	717	86814
1	58862413	718	90365
1	58946591	719	89729
1	59030566	720	89464
1	59113358	721	86443
1	59197523	722	89676
1	59281218	723	88086
1	59365849	724	91107
1	59449614	725	87927
1	59533693	726	90365
1	59618049	727	90471
1	59702289	728	89199
1	59786674	729	90312
1	59869940	730	87450
1	59955024	731	91478
1	60038845	732	88245
1	60122273	733	88616
1	60206185	734	88457
1	60290086	735	89782
1	60373884	736	89994
1	60458246	737	88934
1	60541937	738	89570
1	60626228	739	89199
1	60710496	740	89729
1	60794121	741	88563
1	60877675	742	88881
1	60962610	743	90683
1	61045591	744	87238
1	61130391	745	91531
1	61214382	746	87556
1	61297807	747	88616
1	61382275	748	90948
1	61466803	749	89517
1	61551757	750	91319
1	61636461	751	91107
1	61720622	752	90471
1	61805815	753	91637
1	61890202	754	89464
1	61973914	755	89093
1	62058876	756	91319
1	62141014	757	85012
1	62224734	758	88828
1	62308849	759	89093
1	62393894	760	92220
1	62478136	761	89835
1	62561885	762	88722
1	62645875	763	88457
1	62728345	764	86125
1	62811972	765	89782
1	62896078	766	88775
1	62979218	767	87609
1	63063461	768	89941
1	63147125	769	88987
1	63231512	770	89358
1	63316361	771	91001
1	63400505	772	89040
1	63483761	773	87821
1	63568877	774	91637
1	63653657	775	90259
1	63737294	776	89358
1	63821822	777	90418
1	63906099	778	89782
1	63989645	779	88351
1	64074354	780	90630
1	64158434	781	88033
1	64243029	782	91319
1	64327390	783	89411
1	64412738	784	92750
1	64497064	785	90100
1	64581361	786	89623
1	64664763	787	88351
1	64749150	788	90047
1	64831736	789	85807
1	64915494	790	89040
1	64998026	791	85754
1	65082049	792	89994
1	65165421	793	87079
1	65249303	794	89835
1	65333361	795	89093
1	65415768	796	85860
1	65499843	797	89994
1	65583243	798	87079
1	65666604	799	89358
1	65751176	800	90577
1	65835140	801	88404
1	65918933	802	88563
1	66003294	803	90365
1	66086408	804	87132
1	66170762	805	90471
1	66254938	806	89570
1	66338270	807	86920
1	66423625	808	92962
1	66507421	809	88245
1	66591847	810	90630
1	66676070	811	90206
1	66761147	812	91478
1	66845024	813	87821
1	66929446	814	91107
1	67014695	815	90471
1	67098442	816	89517
1	67182616	817	89411
1	67266446	818	89782
1	67351034	819	90577
1	67435006	820	88722
1	67518275	821	88245
1	67602573	822	89782
1	67686385	823	88510
1	67768518	824	84747
1	67852345	825	89623
1	67936619	826	90100
1	68021138	827	89676
1	68106278	828	92962
1	68190086	829	87927
1	68274122	830	90524
1	68359131	831	91107
1	68441950	832	86178
1	68526043	833	90153
1	68609327	834	86867
1	68693544	835	90259
1	68777953	836	90842
1	68863200	837	90683
1	68947093	838	89040
1	69031224	839	89729
1	69114770	840	88722
1	69198621	841	88669
1	69280558	842	84906
1	69364341	843	88563
1	69447634	844	88086
1	69532307	845	91001
1	69616029	846	87768
1	69699484	847	89040
1	69783692	848	89411
1	69866847	849	87397
1	69950971	850	89888
1	70035793	851	91372
1	70119544	852	87185
1	70202941	853	88828
1	70288019	854	92114
1	70372579	855	90047
1	70456978	856	89411
1	70540465	857	88192
1	70625046	858	90948
1	70708749	859	88881
1	70793280	860	90471
1	70877852	861	90736
1	70961614	862	88404
1	71046062	863	90577
1	71129661	864	88563
1	71214166	865	89782
1	71298077	866	88828
1	71381732	867	89623
1	71466162	868	89464
1	71549746	869	88510
1	71633119	870	88722
1	71716831	871	87927
1	71799813	872	86443
1	71884484	873	91690
1	71968203	874	88563
1	72052674	875	90736
1	72136784	876	89252
1	72220476	877	87662
1	72304844	878	90365
1	72387916	879	87927
1	72472461	880	90312
1	72556609	881	88987
1	72642002	882	91266
1	72726486	883	90047
1	72812288	884	93863
1	72897379	885	90842
1	72982714	886	91637
1	73067478	887	91584
1	73152581	888	91266
1	73237767	889	92538
1	73322445	890	88881
1	73407448	891	92379
1	73491594	892	89358
1	73576293	893	91213
1	73660731	894	90630
1	73745139	895	89199
1	73828677	896	88510
1	73913893	897	91743
1	73998090	898	90259
1	74083154	899	90789
1	74167517	900	90630
1	74252212	901	90471
1	74336029	902	88934
1	74421008	903	91743
1	74504659	904	87344
1	74588128	905	89676
1	74673534	906	91637
1	74757163	907	88457
1	74841570	908	90312
1	74926417	909	89729
1	75010373	910	88934
1	75093841	911	89146
1	75178232	912	89941
1	75261701	913	88298
1	75344130	914	86390
1	75428644	915	89729
1	75512825	916	89835
1	75597255	917	90524
1	75681731	918	90100
1	75765826	919	89888
1	75850606	920	90259
1	75932483	921	84906
1	76016684	922	89994
1	76099197	923	86178
1	76184531	924	92061
1	76268550	925	88616
1	76352085	926	88881
1	76436844	927	90153
1	76520625	928	89199
1	76605056	929	90524
1	76689141	930	87980
1	76773508	931	91001
1	76857748	932	90365
1	76941493	933	87927
1	77025098	934	88881
1	77109241	935	89676
1	77192104	936	86496
1	77276526	937	90259
1	77359818	938	87079
1	77444703	939	91372
1	77529263	940	90842
1	77612707	941	87609
1	77696435	942	89623
1	77779618	943	87132
1	77863354	944	89729
1	77947216	945	88245
1	78030977	946	89146
1	78115325	947	89517
1	78198801	948	87768
1	78281896	949	87185
1	78365545	950	89570
1	78450135	951	90206
1	78532774	952	87821
1	78617594	953	89941
1	78700935	954	88722
1	78784979	955	87609
1	78868915	956	89782
1	78952652	957	89093
1	79037602	958	89941
1	79121364	959	89252
1	79205536	960	88722
1	79288237	961	86496
1	79371881	962	89782
1	79456811	963	90842
1	79540830	964	88669
1	79624226	965	87927
1	79707804	966	89040
1	79791374	967	87609
1	79875381	968	90789
1	79959750	969	89729
1	80044115	970	89570
1	80128318	971	89888
1	80212367	972	89358
1	80296863	973	90153
1	80380735	974	89358
1	80465478	975	91160
1	80550183	976	89888
1	80634608	977	90100
1	80718981	978	89994
1	80804129	979	91849
1	80888433	980	89358
1	80972358	981	88934
1	81056404	982	89782
1	81140566	983	89411
1	81223480	984	87397
1	81307100	985	89411
1	81391596	986	89517
1	81475356	987	88669
1	81559766	988	89464
1	81644411	989	91107
1	81728643	990	89411
1	81811841	991	87185
1	81895270	992	89305
1	81978889	993	87874
1	82063056	994	90471
1	82147374	995	89570
1	82230892	996	87715
1	82314958	997	89305
1	82399328	998	90736
1	82484554	999	91266
2	41992580	517	20
2	42076057	518	18
2	42161291	519	87
2	42245277	520	18
2	42330406	521	41
2	42414507	522	78
2	42497321	523	18
2	42581990	524	43
2	42665846	525	70
2	42748367	526	34
2	42831840	527	36
2	42915412	528	30
2	42999380	529	56
2	43083719	530	57
2	43166636	531	14
2	43250946	532	34
2	43334483	533	43
2	43417890	534	11
2	43502901	535	62
2	43587412	536	12
2	43671949	537	51
2	43755435	538	20
2	43839539	539	42
2	43923080	540	43
2	44006420	541	22
2	44090493	542	36
2	44174254	543	33
2	44258736	544	30
2	44342692	545	37
2	44425896	546	27
2	44509644	547	26
2	44593017	548	48
2	44676283	549	40
2	44760329	550	63
2	44843766	551	42
2	44927136	552	41
2	45010213	553	30
2	45094053	554	50
2	45177946	555	10
2	45262907	556	48
2	45346068	557	35
2	45429993	558	34
2	45514231	559	45
2	45598575	560	19
2	45683974	561	66
2	45767752	562	67
2	45850953	563	22
2	45934675	564	50
2	46018670	565	75
2	46101538	566	18
2	46185275	567	37
2	46268519	568	38
2	46352968	569	64
2	46436510	570	16
2	46520225	571	34
2	46603964	572	49
2	46688210	573	61
2	46771529	574	10
2	46855871	575	34
2	46939754	576	34
2	47024203	577	59
2	47106785	578	11
2	47190906	579	34
2	47274529	580	17
2	47358443	581	63
2	47442439	582	35
2	47528285	583	113
2	47610375	584	22
2	47695012	585	77
2	47779908	586	65
2	47862942	587	44
2	47946398	588	42
2	48030087	589	18
2	48113688	590	61
2	48196664	591	58
2	48279451	592	9
2	48363876	593	76
2	48447232	594	22
2	48531835	595	32
2	48616576	596	27
2	48700966	597	23
2	48785180	598	59
2	48868571	599	29
2	48953325	600	59
2	49036546	601	19
2	49120968	602	69
2	49203671	603	19
2	49288830	604	70
2	49372249	605	43
2	49456383	606	28
2	49540672	607	42
2	49623925	608	56
2	49707190	609	11
2	49791147	610	15
2	49875445	611	40
2	49960107	612	29
2	50045211	613	30
2	50129289	614	28
2	50213889	615	59
2	50298798	616	46
2	50383251	617	76
2	50466299	618	14
2	50550177	619	47
2	50633868	620	23
2	50717702	621	35
2	50801178	622	30
2	50885592	623	52
2	50969204	624	18
2	51053152	625	28
2	51137033	626	50
2	51220082	627	7
2	51304564	628	67
2	51387298	629	38
2	51471476	630	17
2	51556466	631	54
2	51639948	632	44
2	51723065	633	29
2	51806917	634	71
2	51890357	635	23
2	51974389	636	57
2	52057872	637	62
2	52140494	638	7
2	52225006	639	65
2	52308608	640	46
2	52391744	641	13
2	52476725	642	77
2	52559446	643	25
2	52643729	644	21
2	52728234	645	37
2	52812400	646	10
2	52897029	647	31
2	52981730	648	88
2	53065054	649	37
2	53148714	650	36
2	53233631	651	18
2	53317518	652	62
2	53401253	653	40
2	53484930	654	39
2	53568593	655	45
2	53651933	656	13
2	53735977	657	56
2	53819590	658	24
2	53904105	659	76
2	53987878	660	34
2	54072507	661	57
2	54155449	662	27
2	54239776	663	27
2	54323989	664	44
2	54408041	665	21
2	54492180	666	29
2	54576414	667	25
2	54661540	668	41
2	54745258	669	15
2	54829322	670	64
2	54913674	671	25
2	54997649	672	87
2	55080125	673	20
2	55164638	674	76
2	55247771	675	31
2	55331443	676	54
2	55414923	677	36
2	55498732	678	22
2	55583882	679	69
2	55667224	680	30
2	55751823	681	49
2	55835724	682	5
2	55920862	683	39
2	56005254	684	33
2	56089487	685	43
2	56173870	686	13
2	56259050	687	34
2	56342528	688	15
2	56427624	689	52
2	56511217	690	29
2	56595802	691	85
2	56678680	692	7
2	56762479	693	31
2	56846578	694	44
2	56930761	695	62
2	57014852	696	33
2	57099771	697	17
2	57184851	698	62
2	57268160	699	26
2	57352977	700	48
2	57436016	701	18
2	57520263	702	73
2	57603848	703	29
2	57688042	704	32
2	57771322	705	83
2	57854706	706	30
2	57938181	707	16
2	58023109	708	47
2	58106734	709	32
2	58190537	710	29
2	58274481	711	47
2	58358107	712	21
2	58442488	713	27
2	58527035	714	72
2	58610833	715	35
2	58695480	716	70
2	58777866	717	7
2	58862413	718	25
2	58946591	719	13
2	59030566	720	77
2	59113358	721	21
2	59197523	722	52
2	59281218	723	36
2	59365849	724	39
2	59449614	725	16
2	59533693	726	21
2	59618049	727	26
2	59702289	728	31
2	59786674	729	90
2	59869940	730	20
2	59955024	731	60
2	60038845	732	47
2	60122273	733	48
2	60206185	734	17
2	60290086	735	26
2	60373884	736	33
2	60458246	737	36
2	60541937	738	33
2	60626228	739	21
2	60710496	740	43
2	60794121	741	70
2	60877675	742	6
2	60962610	743	56
2	61045591	744	10
2	61130391	745	57
2	61214382	746	46
2	61297807	747	15
2	61382275	748	52
2	61466803	749	18
2	61551757	750	36
2	61636461	751	18
2	61720622	752	24
2	61805815	753	28
2	61890202	754	46
2	61973914	755	6
2	62058876	756	106
2	62141014	757	20
2	62224734	758	49
2	62308849	759	17
2	62393894	760	52
2	62478136	761	29
2	62561885	762	59
2	62645875	763	86
2	62728345	764	24
2	62811972	765	37
2	62896078	766	34
2	62979218	767	33
2	63063461	768	74
2	63147125	769	28
2	63231512	770	28
2	63316361	771	46
2	63400505	772	66
2	63483761	773	29
2	63568877	774	41
2	63653657	775	37
2	63737294	776	12
2	63821822	777	39
2	63906099	778	44
2	63989645	779	36
2	64074354	780	55
2	64158434	781	31
2	64243029	782	56
2	64327390	783	29
2	64412738	784	46
2	64497064	785	43
2	64581361	786	56
2	64664763	787	20
2	64749150	788	67
2	64831736	789	17
2	64915494	790	71
2	64998026	791	20
2	65082049	792	60
2	65165421	793	23
2	65249303	794	18
2	65333361	795	69
2	65415768	796	8
2	65499843	797	54
2	65583243	798	45
2	65666604	799	25
2	65751176	800	39
2	65835140	801	67
2	65918933	802	43
2	66003294	803	44
2	66086408	804	18
2	66170762	805	23
2	66254938	806	92
2	66338270	807	21
2	66423625	808	52
2	66507421	809	11
2	66591847	810	37
2	66676070	811	31
2	66761147	812	57
2	66845024	813	31
2	66929446	814	52
2	67014695	815	40
2	67098442	816	64
2	67182616	817	21
2	67266446	818	21
2	67351034	819	32
2	67435006	820	47
2	67518275	821	16
2	67602573	822	36
2	67686385	823	79
2	67768518	824	23
2	67852345	825	38
2	67936619	826	23
2	68021138	827	18
2	68106278	828	45
2	68190086	829	25
2	68274122	830	15
2	68359131	831	80
2	68441950	832	8
2	68526043	833	57
2	68609327	834	38
2	68693544	835	22
2	68777953	836	14
2	68863200	837	51
2	68947093	838	37
2	69031224	839	43
2	69114770	840	32
2	69198621	841	104
2	69280558	842	17
2	69364341	843	47
2	69447634	844	18
2	69532307	845	47
2	69616029	846	35
2	69699484	847	16
2	69783692	848	64
2	69866847	849	18
2	69950971	850	24
2	70035793	851	81
2	70119544	852	38
2	70202941	853	5
2	70288019	854	42
2	70372579	855	59
2	70456978	856	43
2	70540465	857	29
2	70625046	858	34
2	70708749	859	32
2	70793280	860	37
2	70877852	861	26
2	70961614	862	26
2	71046062	863	65
2	71129661	864	46
2	71214166	865	49
2	71298077	866	20
2	71381732	867	21
2	71466162	868	44
2	71549746	869	27
2	71633119	870	47
2	71716831	871	67
2	71799813	872	20
2	71884484	873	72
2	71968203	874	28
2	72052674	875	41
2	72136784	876	60
2	72220476	877	24
2	72304844	878	55
2	72387916	879	20
2	72472461	880	53
2	72556609	881	24
2	72642002	882	50
2	72726486	883	25
2	72812288	884	28
2	72897379	885	52
2	72982714	886	33
2	73067478	887	39
2	73152581	888	20
2	73237767	889	61
2	73322445	890	32
2	73407448	891	66
2	73491594	892	28
2	73576293	893	33
2	73660731	894	40
2	73745139	895	55
2	73828677	896	28
2	73913893	897	26
2	73998090	898	35
2	74083154	899	48
2	74167517	900	27
2	74252212	901	54
2	74336029	902	16
2	74421008	903	65
2	74504659	904	43
2	74588128	905	9
2	74673534	906	59
2	74757163	907	33
2	74841570	908	66
2	74926417	909	62
2	75010373	910	35
2	75093841	911	12
2	75178232	912	47
2	75261701	913	75
2	75344130	914	19
2	75428644	915	23
2	75512825	916	9
2	75597255	917	48
2	75681731	918	24
2	75765826	919	24
2	75850606	920	93
2	75932483	921	9
2	76016684	922	81
2	76099197	923	19
2	76184531	924	71
2	76268550	925	40
2	76352085	926	26
2	76436844	927	53
2	76520625	928	25
2	76605056	929	75
2	76689141	930	20
2	76773508	931	24
2	76857748	932	51
2	76941493	933	37
2	77025098	934	32
2	77109241	935	81
2	77192104	936	14
2	77276526	937	79
2	77359818	938	15
2	77444703	939	27
2	77529263	940	54
2	77612707	941	9
2	77696435	942	44
2	77779618	943	31
2	77863354	944	47
2	77947216	945	28
2	78030977	946	22
2	78115325	947	53
2	78198801	948	66
2	78281896	949	25
2	78365545	950	16
2	78450135	951	64
2	78532774	952	15
2	78617594	953	60
2	78700935	954	42
2	78784979	955	29
2	78868915	956	60
2	78952652	957	36
2	79037602	958	73
2	79121364	959	53
2	79205536	960	83
2	79288237	961	21
2	79371881	962	9
2	79456811	963	46
2	79540830	964	81
2	79624226	965	19
2	79707804	966	46
2	79791374	967	25
2	79875381	968	27
2	79959750	969	28
2	80044115	970	27
2	80128318	971	40
2	80212367	972	23
2	80296863	973	34
2	80380735	974	21
2	80465478	975	61
2	80550183	976	24
2	80634608	977	39
2	80718981	978	28
2	80804129	979	41
2	80888433	980	40
2	80972358	981	41
2	81056404	982	26
2	81140566	983	43
2	81223480	984	27
2	81307100	985	52
2	81391596	986	52
2	81475356	987	58
2	81559766	988	45
2	81644411	989	21
2	81728643	990	64
2	81811841	991	37
2	81895270	992	48
2	81978889	993	12
2	82063056	994	28
2	82147374	995	50
2	82230892	996	39
2	82314958	997	31
2	82399328	998	33
2	82484554	999	46
3	41992580	517	0
3	42076057	518	10
3	42161291	519	12
3	42245277	520	12
3	42330406	521	15
3	42414507	522	8
3	42497321	523	15
3	42581990	524	6
3	42665846	525	15
3	42748367	526	10
3	42831840	527	14
3	42915412	528	20
3	42999380	529	19
3	43083719	530	19
3	43166636	531	16
3	43250946	532	14
3	43334483	533	17
3	43417890	534	7
3	43502901	535	3
3	43587412	536	10
3	43671949	537	7
3	43755435	538	4
3	43839539	539	9
3	43923080	540	10
3	44006420	541	11
3	44090493	542	16
3	44174254	543	5
3	44258736	544	9
3	44342692	545	20
3	44425896	546	7
3	44509644	547	4
3	44593017	548	12
3	44676283	549	8
3	44760329	550	12
3	44843766	551	18
3	44927136	552	8
3	45010213	553	11
3	45094053	554	6
3	45177946	555	7
3	45262907	556	20
3	45346068	557	23
3	45429993	558	9
3	45514231	559	10
3	45598575	560	10
3	45683974	561	19
3	45767752	562	13
3	45850953	563	11
3	45934675	564	7
3	46018670	565	10
3	46101538	566	9
3	46185275	567	10
3	46268519	568	4
3	46352968	569	8
3	46436510	570	9
3	46520225	571	15
3	46603964	572	14
3	46688210	573	13
3	46771529	574	13
3	46855871	575	14
3	46939754	576	25
3	47024203	577	14
3	47106785	578	6
3	47190906	579	21
3	47274529	580	20
3	47358443	581	12
3	47442439	582	8
3	47528285	583	14
3	47610375	584	13
3	47695012	585	18
3	47779908	586	10
3	47862942	587	25
3	47946398	588	16
3	48030087	589	16
3	48113688	590	21
3	48196664	591	7
3	48279451	592	4
3	48363876	593	8
3	48447232	594	10
3	48531835	595	6
3	48616576	596	40
3	48700966	597	22
3	48785180	598	29
3	48868571	599	11
3	48953325	600	12
3	49036546	601	7
3	49120968	602	11
3	49203671	603	20
3	49288830	604	15
3	49372249	605	4
3	49456383	606	6
3	49540672	607	6
3	49623925	608	6
3	49707190	609	4
3	49791147	610	14
3	49875445	611	10
3	49960107	612	18
3	50045211	613	23
3	50129289	614	19
3	50213889	615	12
3	50298798	616	10
3	50383251	617	6
3	50466299	618	16
3	50550177	619	21
3	50633868	620	21
3	50717702	621	24
3	50801178	622	13
3	50885592	623	8
3	50969204	624	9
3	51053152	625	7
3	51137033	626	7
3	51220082	627	18
3	51304564	628	8
3	51387298	629	20
3	51471476	630	12
3	51556466	631	14
3	51639948	632	6
3	51723065	633	5
3	51806917	634	7
3	51890357	635	22
3	51974389	636	20
3	52057872	637	18
3	52140494	638	4
3	52225006	639	11
3	52308608	640	13
3	52391744	641	7
3	52476725	642	12
3	52559446	643	21
3	52643729	644	14
3	52728234	645	8
3	52812400	646	12
3	52897029	647	9
3	52981730	648	8
3	53065054	649	9
3	53148714	650	15
3	53233631	651	23
3	53317518	652	15
3	53401253	653	17
3	53484930	654	1
3	53568593	655	9
3	53651933	656	13
3	53735977	657	8
3	53819590	658	6
3	53904105	659	17
3	53987878	660	6
3	54072507	661	9
3	54155449	662	9
3	54239776	663	5
3	54323989	664	15
3	54408041	665	18
3	54492180	666	6
3	54576414	667	9
3	54661540	668	19
3	54745258	669	11
3	54829322	670	8
3	54913674	671	14
3	54997649	672	11
3	55080125	673	4
3	55164638	674	3
3	55247771	675	6
3	55331443	676	11
3	55414923	677	8
3	55498732	678	7
3	55583882	679	18
3	55667224	680	7
3	55751823	681	21
3	55835724	682	3
3	55920862	683	9
3	56005254	684	7
3	56089487	685	27
3	56173870	686	18
3	56259050	687	13
3	56342528	688	7
3	56427624	689	9
3	56511217	690	11
3	56595802	691	20
3	56678680	692	17
3	56762479	693	24
3	56846578	694	30
3	56930761	695	19
3	57014852	696	20
3	57099771	697	19
3	57184851	698	9
3	57268160	699	10
3	57352977	700	7
3	57436016	701	11
3	57520263	702	8
3	57603848	703	9
3	57688042	704	16
3	57771322	705	22
3	57854706	706	12
3	57938181	707	19
3	58023109	708	21
3	58106734	709	6
3	58190537	710	10
3	58274481	711	18
3	58358107	712	15
3	58442488	713	15
3	58527035	714	11
3	58610833	715	12
3	58695480	716	36
3	58777866	717	14
3	58862413	718	9
3	58946591	719	10
3	59030566	720	8
3	59113358	721	11
3	59197523	722	10
3	59281218	723	19
3	59365849	724	10
3	59449614	725	13
3	59533693	726	9
3	59618049	727	11
3	59702289	728	15
3	59786674	729	23
3	59869940	730	23
3	59955024	731	14
3	60038845	732	7
3	60122273	733	7
3	60206185	734	14
3	60290086	735	22
3	60373884	736	23
3	60458246	737	40
3	60541937	738	7
3	60626228	739	21
3	60710496	740	18
3	60794121	741	10
3	60877675	742	8
3	60962610	743	22
3	61045591	744	18
3	61130391	745	12
3	61214382	746	15
3	61297807	747	11
3	61382275	748	3
3	61466803	749	11
3	61551757	750	12
3	61636461	751	16
3	61720622	752	11
3	61805815	753	17
3	61890202	754	19
3	61973914	755	8
3	62058876	756	16
3	62141014	757	18
3	62224734	758	7
3	62308849	759	5
3	62393894	760	5
3	62478136	761	15
3	62561885	762	15
3	62645875	763	11
3	62728345	764	5
3	62811972	765	22
3	62896078	766	26
3	62979218	767	16
3	63063461	768	12
3	63147125	769	13
3	63231512	770	23
3	63316361	771	15
3	63400505	772	11
3	63483761	773	13
3	63568877	774	10
3	63653657	775	5
3	63737294	776	7
3	63821822	777	13
3	63906099	778	13
3	63989645	779	9
3	64074354	780	12
3	64158434	781	22
3	64243029	782	3
3	64327390	783	8
3	64412738	784	10
3	64497064	785	12
3	64581361	786	22
3	64664763	787	19
3	64749150	788	9
3	64831736	789	18
3	64915494	790	8
3	64998026	791	13
3	65082049	792	9
3	65165421	793	7
3	65249303	794	7
3	65333361	795	10
3	65415768	796	12
3	65499843	797	13
3	65583243	798	16
3	65666604	799	10
3	65751176	800	9
3	65835140	801	5
3	65918933	802	16
3	66003294	803	20
3	66086408	804	22
3	66170762	805	11
3	66254938	806	11
3	66338270	807	11
3	66423625	808	10
3	66507421	809	16
3	66591847	810	12
3	66676070	811	19
3	66761147	812	14
3	66845024	813	18
3	66929446	814	11
3	67014695	815	11
3	67098442	816	9
3	67182616	817	13
3	67266446	818	17
3	67351034	819	17
3	67435006	820	10
3	67518275	821	6
3	67602573	822	8
3	67686385	823	5
3	67768518	824	15
3	67852345	825	17
3	67936619	826	11
3	68021138	827	11
3	68106278	828	12
3	68190086	829	23
3	68274122	830	8
3	68359131	831	11
3	68441950	832	12
3	68526043	833	11
3	68609327	834	4
3	68693544	835	11
3	68777953	836	14
3	68863200	837	15
3	68947093	838	11
3	69031224	839	7
3	69114770	840	4
3	69198621	841	4
3	69280558	842	12
3	69364341	843	7
3	69447634	844	9
3	69532307	845	11
3	69616029	846	12
3	69699484	847	6
3	69783692	848	16
3	69866847	849	9
3	69950971	850	4
3	70035793	851	8
3	70119544	852	10
3	70202941	853	10
3	70288019	854	11
3	70372579	855	12
3	70456978	856	14
3	70540465	857	13
3	70625046	858	11
3	70708749	859	12
3	70793280	860	20
3	70877852	861	21
3	70961614	862	16
3	71046062	863	8
3	71129661	864	4
3	71214166	865	9
3	71298077	866	7
3	71381732	867	6
3	71466162	868	7
3	71549746	869	20
3	71633119	870	14
3	71716831	871	19
3	71799813	872	24
3	71884484	873	9
3	71968203	874	17
3	72052674	875	19
3	72136784	876	25
3	72220476	877	16
3	72304844	878	18
3	72387916	879	4
3	72472461	880	8
3	72556609	881	10
3	72642002	882	7
3	72726486	883	6
3	72812288	884	12
3	72897379	885	12
3	72982714	886	12
3	73067478	887	11
3	73152581	888	12
3	73237767	889	11
3	73322445	890	17
3	73407448	891	12
3	73491594	892	9
3	73576293	893	11
3	73660731	894	6
3	73745139	895	19
3	73828677	896	15
3	73913893	897	20
3	73998090	898	24
3	74083154	899	34
3	74167517	900	18
3	74252212	901	14
3	74336029	902	18
3	74421008	903	10
3	74504659	904	6
3	74588128	905	9
3	74673534	906	9
3	74757163	907	6
3	74841570	908	15
3	74926417	909	15
3	75010373	910	13
3	75093841	911	13
3	75178232	912	10
3	75261701	913	13
3	75344130	914	21
3	75428644	915	13
3	75512825	916	6
3	75597255	917	10
3	75681731	918	10
3	75765826	919	11
3	75850606	920	3
3	75932483	921	7
3	76016684	922	8
3	76099197	923	6
3	76184531	924	8
3	76268550	925	11
3	76352085	926	15
3	76436844	927	19
3	76520625	928	8
3	76605056	929	6
3	76689141	930	22
3	76773508	931	6
3	76857748	932	19
3	76941493	933	20
3	77025098	934	7
3	77109241	935	4
3	77192104	936	9
3	77276526	937	3
3	77359818	938	11
3	77444703	939	6
3	77529263	940	13
3	77612707	941	8
3	77696435	942	8
3	77779618	943	5
3	77863354	944	15
3	77947216	945	25
3	78030977	946	7
3	78115325	947	13
3	78198801	948	9
3	78281896	949	10
3	78365545	950	12
3	78450135	951	19
3	78532774	952	12
3	78617594	953	25
3	78700935	954	9
3	78784979	955	9
3	78868915	956	4
3	78952652	957	15
3	79037602	958	6
3	79121364	959	10
3	79205536	960	26
3	79288237	961	19
3	79371881	962	7
3	79456811	963	9
3	79540830	964	18
3	79624226	965	20
3	79707804	966	25
3	79791374	967	26
3	79875381	968	19
3	79959750	969	31
3	80044115	970	6
3	80128318	971	6
3	80212367	972	4
3	80296863	973	3
3	80380735	974	8
3	80465478	975	5
3	80550183	976	13
3	80634608	977	3
3	80718981	978	9
3	80804129	979	12
3	80888433	980	16
3	80972358	981	11
3	81056404	982	13
3	81140566	983	8
3	81223480	984	7
3	81307100	985	21
3	81391596	986	29
3	81475356	987	15
3	81559766	988	16
3	81644411	989	12
3	81728643	990	14
3	81811841	991	16
3	81895270	992	11
3	81978889	993	15
3	82063056	994	14
3	82147374	995	9
3	82230892	996	9
3	82314958	997	8
3	82399328	998	8
3	82484554	999	13