version 2
run QLearnCC-2-20100909-16:45:07-6068
attr configname QLearnCC
attr datetime 20100909-16:45:07
attr experiment QLearnCC
attr inifile D:/Developement/Oversim2/multic/simulations/omnetpp.ini
attr iterationvars $rateIncoming=200000
attr iterationvars2 "$rateIncoming=200000, $repetition=0"
attr measurement $rateIncoming=200000
attr network oversim.underlay.simpleunderlay.SimpleUnderlayNetwork
attr processid 6068
attr rateIncoming 200000
attr repetition 0
attr replication #0
attr resultdir results
attr runnumber 2
attr seedset 2

vector 1  SimpleUnderlayNetwork.globalObserver.globalStatistics  incoming_bytes  ETV
vector 2  SimpleUnderlayNetwork.globalObserver.globalStatistics  drops  ETV
vector 3  SimpleUnderlayNetwork.globalObserver.globalStatistics  delayed_acks  ETV
vector 4  SimpleUnderlayNetwork.globalObserver.globalStatistics  timetotimeouts  ETV
vector 5  SimpleUnderlayNetwork.globalObserver.globalStatistics  9rateOf1To0  ETV
vector 6  SimpleUnderlayNetwork.globalObserver.globalStatistics  max9RateOf1To0  ETV
vector 7  SimpleUnderlayNetwork.globalObserver.globalStatistics  9rateOf1To1  ETV
vector 8  SimpleUnderlayNetwork.globalObserver.globalStatistics  max9RateOf1To1  ETV
vector 9  SimpleUnderlayNetwork.globalObserver.globalStatistics  9rateOf1To2  ETV
vector 10  SimpleUnderlayNetwork.globalObserver.globalStatistics  max9RateOf1To2  ETV
vector 11  SimpleUnderlayNetwork.globalObserver.globalStatistics  9rateOf1To3  ETV
vector 12  SimpleUnderlayNetwork.globalObserver.globalStatistics  max9RateOf1To3  ETV
vector 13  SimpleUnderlayNetwork.globalObserver.globalStatistics  9rateOf1To4  ETV
vector 14  SimpleUnderlayNetwork.globalObserver.globalStatistics  max9RateOf1To4  ETV
vector 15  SimpleUnderlayNetwork.globalObserver.globalStatistics  9rateOf1To5  ETV
vector 16  SimpleUnderlayNetwork.globalObserver.globalStatistics  max9RateOf1To5  ETV
vector 17  SimpleUnderlayNetwork.globalObserver.globalStatistics  9rateOf1To6  ETV
vector 18  SimpleUnderlayNetwork.globalObserver.globalStatistics  max9RateOf1To6  ETV
vector 19  SimpleUnderlayNetwork.globalObserver.globalStatistics  9rateOf1To7  ETV
vector 20  SimpleUnderlayNetwork.globalObserver.globalStatistics  max9RateOf1To7  ETV
vector 21  SimpleUnderlayNetwork.globalObserver.globalStatistics  9rateOf1To8  ETV
vector 22  SimpleUnderlayNetwork.globalObserver.globalStatistics  max9RateOf1To8  ETV
vector 23  SimpleUnderlayNetwork.globalObserver.globalStatistics  9rateOf1To9  ETV
vector 24  SimpleUnderlayNetwork.globalObserver.globalStatistics  max9RateOf1To9  ETV
vector 25  SimpleUnderlayNetwork.globalObserver.globalStatistics  1rate  ETV
vector 26  SimpleUnderlayNetwork.globalObserver.globalStatistics  max2Rate  ETV
vector 27  SimpleUnderlayNetwork.globalObserver.globalStatistics  "GlobalNodeList: Number of nodes"  ETV
vector 28  SimpleUnderlayNetwork.globalObserver.globalStatistics  "GlobalNodeList: Number of bootstrapped malicious nodes"  ETV
1	128246505	6018	41658
1	128268136	6019	41499
1	128290194	6020	42824
1	128312097	6021	42400
1	128333985	6022	42241
1	128356062	6023	42241
1	128378196	6024	42983
1	128399944	6025	41711
1	128421861	6026	42188
1	128443934	6027	42347
1	128465891	6028	42771
1	128487889	6029	42400
1	128509944	6030	42135
1	128532014	6031	42983
1	128554007	6032	42082
1	128576106	6033	43142
1	128597737	6034	41393
1	128619770	6035	42612
1	128641611	6036	42082
1	128663594	6037	41976
1	128685862	6038	42983
1	128707846	6039	42241
1	128729926	6040	42771
1	128751845	6041	42506
1	128773794	6042	42612
1	128795850	6043	41923
1	128818233	6044	43301
1	128840189	6045	42188
1	128862049	6046	41870
1	128884527	6047	43937
1	128906805	6048	42877
1	128928826	6049	42294
1	128950627	6050	42135
1	128972597	6051	42188
1	128994371	6052	41340
1	129016402	6053	42665
1	129038578	6054	42824
1	129060644	6055	42188
1	129082707	6056	42718
1	129105117	6057	43142
1	129127000	6058	42347
1	129149384	6059	42877
1	129171470	6060	42082
1	129193676	6061	43195
1	129215448	6062	42029
1	129237540	6063	42453
1	129259477	6064	41870
1	129281542	6065	42824
1	129303753	6066	42506
1	129325788	6067	42771
1	129347853	6068	42241
1	129369689	6069	41817
1	129391585	6070	42241
1	129413609	6071	42506
1	129435573	6072	41976
1	129457659	6073	42294
1	129479827	6074	42824
1	129501985	6075	42135
1	129524513	6076	43142
1	129546555	6077	42718
1	129568476	6078	42029
1	129590631	6079	42241
1	129612695	6080	42983
1	129634855	6081	42400
1	129657197	6082	43036
1	129679244	6083	42294
1	129700993	6084	41870
1	129723273	6085	42453
1	129745749	6086	43195
1	129767626	6087	41711
1	129789968	6088	43513
1	129811783	6089	41287
1	129833275	6090	41870
1	129855450	6091	42612
1	129877547	6092	42665
1	129899304	6093	41870
1	129921413	6094	42559
1	129943545	6095	42188
1	129965913	6096	43195
1	129987881	6097	42665
1	130010108	6098	42718
1	130032074	6099	41817
1	130054347	6100	42983
1	130076027	6101	41976
1	130098233	6102	42135
1	130119898	6103	41870
1	130142451	6104	43301
1	130164386	6105	42188
1	130186172	6106	42188
1	130208570	6107	43195
1	130230992	6108	43354
1	130253366	6109	42347
1	130275519	6110	43248
1	130297332	6111	41446
1	130319683	6112	43248
1	130341914	6113	43036
1	130364385	6114	42612
1	130386746	6115	42930
1	130408552	6116	42347
1	130430693	6117	42294
1	130453161	6118	43884
1	130475126	6119	42082
1	130497053	6120	42135
1	130519297	6121	43089
1	130541662	6122	42824
1	130563864	6123	42930
1	130586083	6124	42665
1	130608260	6125	42294
1	130630336	6126	42718
1	130652274	6127	42453
1	130674577	6128	42400
1	130696764	6129	42983
1	130718654	6130	42612
1	130740900	6131	42241
1	130762718	6132	41605
1	130784913	6133	42718
1	130806584	6134	41605
1	130828469	6135	42135
1	130850524	6136	42506
1	130872677	6137	42506
1	130895048	6138	43089
1	130917291	6139	42930
1	130939687	6140	43036
1	130961809	6141	42400
1	130983432	6142	41499
1	131005389	6143	42612
1	131027579	6144	42347
1	131049592	6145	42930
1	131071611	6146	41923
1	131093580	6147	42771
1	131115824	6148	42453
1	131138157	6149	43513
1	131160216	6150	41923
1	131182425	6151	43195
1	131204636	6152	42612
1	131227179	6153	43036
1	131249218	6154	42771
1	131271224	6155	42188
1	131293280	6156	42559
1	131315682	6157	42930
1	131337685	6158	42506
1	131359808	6159	42347
1	131381877	6160	42771
1	131403809	6161	42082
1	131426174	6162	42665
1	131448527	6163	43513
1	131470644	6164	42294
1	131492882	6165	42824
1	131515125	6166	42824
1	131536935	6167	42347
1	131558739	6168	41181
1	131580838	6169	42983
1	131602807	6170	41711
1	131624976	6171	43142
1	131647028	6172	42506
1	131669332	6173	42718
1	131691150	6174	41870
1	131713429	6175	43089
1	131735282	6176	42188
1	131757323	6177	42294
1	131779623	6178	42877
1	131801360	6179	41976
1	131823388	6180	42241
1	131845353	6181	42135
1	131867538	6182	43089
1	131889803	6183	42453
1	131911908	6184	42612
1	131933950	6185	42559
1	131956063	6186	42612
1	131978037	6187	41923
1	131999699	6188	41817
1	132022162	6189	43301
1	132044254	6190	42824
1	132066365	6191	42135
1	132088609	6192	42294
1	132110888	6193	43248
1	132132791	6194	41764
1	132154682	6195	42718
1	132176944	6196	42665
1	132199178	6197	42347
1	132221061	6198	41711
1	132243319	6199	43566
1	132265778	6200	43036
1	132287904	6201	42612
1	132310067	6202	43036
1	132332378	6203	42506
1	132354027	6204	42612
1	132376207	6205	42559
1	132398339	6206	42665
1	132420563	6207	42983
1	132442762	6208	42930
1	132464955	6209	42188
1	132487030	6210	42771
1	132509369	6211	43460
1	132531405	6212	41234
1	132553820	6213	44361
1	132575916	6214	42294
1	132598570	6215	43778
1	132620994	6216	42930
1	132643318	6217	43460
1	132665350	6218	41711
1	132687981	6219	43937
1	132710333	6220	42559
1	132732652	6221	42771
1	132755090	6222	43407
1	132777281	6223	43460
1	132799669	6224	42877
1	132821863	6225	42506
1	132844139	6226	42930
1	132866417	6227	42506
1	132888800	6228	43566
1	132910956	6229	42294
1	132933383	6230	43142
1	132955874	6231	43301
1	132978307	6232	43089
1	133000539	6233	42824
1	133022928	6234	42824
1	133045191	6235	43195
1	133067470	6236	42294
1	133089655	6237	43036
1	133111699	6238	42400
1	133134060	6239	42718
1	133156260	6240	42983
1	133178754	6241	43142
1	133200679	6242	41870
1	133223072	6243	43619
1	133244982	6244	42029
1	133266947	6245	42294
1	133289255	6246	42559
1	133311469	6247	42400
1	133333618	6248	42983
1	133356186	6249	43142
1	133378090	6250	42029
1	133400659	6251	43725
1	133423114	6252	42983
1	133445245	6253	42930
1	133467413	6254	42029
1	133489887	6255	43301
1	133511887	6256	42294
1	133533977	6257	42718
1	133556349	6258	42453
1	133578534	6259	43142
1	133600985	6260	43301
1	133623303	6261	42771
1	133645249	6262	42082
1	133667552	6263	43460
1	133689825	6264	42188
1	133712117	6265	43619
1	133734118	6266	41923
1	133756299	6267	42877
1	133778529	6268	43142
1	133800793	6269	42506
1	133822914	6270	42718
1	133844877	6271	41870
1	133867137	6272	42771
1	133889159	6273	42347
1	133910973	6274	41764
1	133933143	6275	42930
1	133955241	6276	42612
1	133977743	6277	42771
1	133999947	6278	43142
1	134022193	6279	42559
1	134044136	6280	42771
1	134065685	6281	40333
1	134087674	6282	43089
1	134109648	6283	41976
1	134131669	6284	42930
1	134153890	6285	42506
1	134176024	6286	42983
1	134198439	6287	42612
1	134220758	6288	42771
1	134243055	6289	43407
1	134265306	6290	43354
1	134287335	6291	42188
1	134309572	6292	42877
1	134331902	6293	42824
1	134354252	6294	42983
1	134376587	6295	43248
1	134398940	6296	43142
1	134421330	6297	43089
1	134443683	6298	42824
1	134466097	6299	43460
1	134488361	6300	43407
1	134510770	6301	43036
1	134532971	6302	42718
1	134555101	6303	42241
1	134577317	6304	42824
1	134599540	6305	43354
1	134621492	6306	41658
1	134643368	6307	42241
1	134665664	6308	43195
1	134688068	6309	43195
1	134710240	6310	42347
1	134732125	6311	42506
1	134754783	6312	43672
1	134776786	6313	41923
1	134799577	6314	44096
1	134821805	6315	42877
1	134844012	6316	42188
1	134866252	6317	43301
1	134888279	6318	42188
1	134910416	6319	42718
1	134932220	6320	41711
1	134954634	6321	43725
1	134976939	6322	42771
1	134999330	6323	42824
1	135021664	6324	43407
1	135044239	6325	43460
1	135066638	6326	43089
1	135088925	6327	42983
1	135111385	6328	43354
1	135133682	6329	42718
1	135155988	6330	42718
1	135178251	6331	43513
1	135200645	6332	42453
1	135222702	6333	42559
1	135244815	6334	42824
1	135267350	6335	42718
1	135289287	6336	42188
1	135311802	6337	43513
1	135334201	6338	43089
1	135356740	6339	43619
1	135378928	6340	42718
1	135401183	6341	42400
1	135423300	6342	42612
1	135445619	6343	43566
1	135468004	6344	42930
1	135490169	6345	42665
1	135512674	6346	43248
1	135534932	6347	42877
1	135557426	6348	43513
1	135579808	6349	43142
1	135601892	6350	42188
1	135624162	6351	42612
1	135646724	6352	43937
1	135669064	6353	42612
1	135691376	6354	42559
1	135713894	6355	43778
1	135736004	6356	42559
1	135758322	6357	42188
1	135780834	6358	44149
1	135803185	6359	42559
1	135825388	6360	42930
1	135847532	6361	42347
1	135869874	6362	43089
1	135892513	6363	43566
1	135915207	6364	43619
1	135937828	6365	43460
1	135960378	6366	43619
1	135982712	6367	42665
1	136004977	6368	42877
1	136027545	6369	43566
1	136050206	6370	43407
1	136072334	6371	42135
1	136094843	6372	43937
1	136117505	6373	43089
1	136139856	6374	43301
1	136162249	6375	42930
1	136184584	6376	43195
1	136207011	6377	43036
1	136229239	6378	43672
1	136251228	6379	41552
1	136273542	6380	43301
1	136295557	6381	41764
1	136317916	6382	43513
1	136340376	6383	43195
1	136362599	6384	43142
1	136384971	6385	42347
1	136407310	6386	43460
1	136429895	6387	43460
1	136452221	6388	42983
1	136474861	6389	43725
1	136497477	6390	43513
1	136519485	6391	41923
1	136541904	6392	43036
1	136564556	6393	43407
1	136587045	6394	43460
1	136609622	6395	43089
1	136631953	6396	42771
1	136654625	6397	43248
1	136676935	6398	43142
1	136699394	6399	43195
1	136721420	6400	42029
1	136743926	6401	43407
1	136766043	6402	42188
1	136788503	6403	42930
1	136810528	6404	42400
1	136833272	6405	44043
1	136855663	6406	42983
1	136877989	6407	42559
1	136900027	6408	42453
1	136922377	6409	42771
1	136944475	6410	42029
1	136966573	6411	42665
1	136989137	6412	43672
1	137011224	6413	41923
1	137033935	6414	44043
1	137056515	6415	43566
1	137078831	6416	43036
1	137101406	6417	43354
1	137123715	6418	43089
1	137146338	6419	43036
1	137168473	6420	42877
1	137191201	6421	43248
1	137213440	6422	43036
1	137235705	6423	42771
1	137258145	6424	42559
1	137280611	6425	44043
1	137302897	6426	41976
1	137325654	6427	44520
1	137347746	6428	42188
1	137370363	6429	43672
1	137392924	6430	43089
1	137415443	6431	43937
1	137437748	6432	42400
1	137460364	6433	43619
1	137482780	6434	43672
1	137505203	6435	42824
1	137527475	6436	43142
1	137549823	6437	43195
1	137572211	6438	43089
1	137594315	6439	42135
1	137616712	6440	43672
1	137638957	6441	42241
1	137661383	6442	43195
1	137684097	6443	43831
1	137706191	6444	42824
1	137728313	6445	42241
1	137750476	6446	42824
1	137772880	6447	42718
1	137795356	6448	43407
1	137817926	6449	43407
1	137840274	6450	42506
1	137862464	6451	43142
1	137884327	6452	41605
1	137906902	6453	44202
1	137929253	6454	43195
1	137951620	6455	42718
1	137974102	6456	43619
1	137996480	6457	43301
1	138019051	6458	43672
1	138041263	6459	42559
1	138063597	6460	42824
1	138086036	6461	43407
1	138108544	6462	43513
1	138130613	6463	41446
1	138153069	6464	43884
1	138175449	6465	43142
1	138197716	6466	42771
1	138219882	6467	42718
1	138241941	6468	42559
1	138264497	6469	43513
1	138286650	6470	42824
1	138309053	6471	42824
1	138331507	6472	43566
1	138354046	6473	42877
1	138376222	6474	43301
1	138398556	6475	42612
1	138421159	6476	43884
1	138443454	6477	42506
1	138465887	6478	43248
1	138488166	6479	43089
1	138510749	6480	43301
1	138533066	6481	42877
1	138555114	6482	42400
1	138577642	6483	43195
1	138599898	6484	42612
1	138622111	6485	43142
1	138644097	6486	42082
1	138666484	6487	42771
1	138688728	6488	43248
1	138711010	6489	43407
1	138733505	6490	43460
1	138755645	6491	42347
1	138777727	6492	42082
1	138800112	6493	43407
1	138822450	6494	43513
1	138844832	6495	42347
1	138867025	6496	42665
1	138889306	6497	43195
1	138911919	6498	43248
1	138934271	6499	43195
1	138956738	6500	43354
1	138979219	6501	43513
1	139001500	6502	42824
1	139024049	6503	43831
1	139046443	6504	42983
1	139068884	6505	43301
1	139091063	6506	42771
1	139113760	6507	43884
1	139136197	6508	43089
1	139158237	6509	42400
1	139180638	6510	43884
1	139203068	6511	43248
1	139225491	6512	43036
1	139247930	6513	43460
1	139270506	6514	43354
1	139292827	6515	43566
1	139315284	6516	43089
1	139337605	6517	43036
1	139360226	6518	43301
1	139382800	6519	43831
1	139405300	6520	43248
1	139428067	6521	44467
1	139450254	6522	42877
1	139472696	6523	42930
1	139495062	6524	42877
1	139517693	6525	43937
1	139540059	6526	43301
1	139562548	6527	42877
1	139584916	6528	43195
1	139607522	6529	44308
1	139629853	6530	42930
1	139652508	6531	43407
1	139674836	6532	42983
1	139697457	6533	43513
1	139719884	6534	43248
1	139742260	6535	42877
1	139764908	6536	44043
1	139787609	6537	43566
1	139810117	6538	43407
1	139832416	6539	43036
1	139854736	6540	42983
1	139877333	6541	43566
1	139899483	6542	42559
1	139922026	6543	43990
1	139944158	6544	42188
1	139966549	6545	43407
1	139988850	6546	42665
1	140011387	6547	43354
1	140033685	6548	43195
1	140056440	6549	44043
1	140079051	6550	43407
1	140101358	6551	42930
1	140124007	6552	43407
1	140146482	6553	43301
1	140169335	6554	44308
1	140191689	6555	42877
1	140214153	6556	43407
1	140236895	6557	43566
1	140259765	6558	44573
1	140282310	6559	43142
1	140305198	6560	44308
1	140327796	6561	43672
1	140350528	6562	43725
1	140372735	6563	42294
1	140395448	6564	44202
1	140417866	6565	42400
1	140440488	6566	43672
1	140463338	6567	44414
1	140485881	6568	43195
1	140508572	6569	43619
1	140531313	6570	43566
1	140553956	6571	43619
1	140576404	6572	43195
1	140598727	6573	42294
1	140621665	6574	44679
1	140644382	6575	43672
1	140667276	6576	43619
1	140689589	6577	42612
1	140712201	6578	44202
1	140734842	6579	43619
1	140757181	6580	42188
1	140779501	6581	43301
1	140802267	6582	44043
1	140824748	6583	42930
1	140847133	6584	43142
1	140869630	6585	43301
1	140891965	6586	43248
1	140914654	6587	43831
1	140937026	6588	43089
1	140959512	6589	43354
1	140981889	6590	43036
1	141004676	6591	44308
1	141026948	6592	41764
1	141049704	6593	44202
1	141072268	6594	43672
1	141094589	6595	43195
1	141117322	6596	43195
1	141139883	6597	43831
1	141162555	6598	43672
1	141185047	6599	43036
1	141207596	6600	43301
1	141230204	6601	43990
1	141252475	6602	42241
1	141275180	6603	44096
1	141297703	6604	43831
1	141320311	6605	43460
1	141342755	6606	43301
1	141365420	6607	43725
1	141387797	6608	42771
1	141410309	6609	43301
1	141432834	6610	43672
1	141455390	6611	43195
1	141477951	6612	43566
1	141500448	6613	43460
1	141522794	6614	43036
1	141545501	6615	43725
1	141567858	6616	43089
1	141590340	6617	42824
1	141612815	6618	43884
1	141635188	6619	43142
1	141658009	6620	44202
1	141680381	6621	42983
1	141702996	6622	43619
1	141725544	6623	43301
1	141747948	6624	43460
1	141770575	6625	43725
1	141793190	6626	43513
1	141815631	6627	43354
1	141838264	6628	43831
1	141860591	6629	42983
1	141882940	6630	42824
1	141905478	6631	43778
1	141928114	6632	43407
1	141950390	6633	42930
1	141973119	6634	44202
1	141995699	6635	43407
1	142017939	6636	42771
1	142040346	6637	43089
1	142062927	6638	43990
1	142085208	6639	42771
1	142107712	6640	43513
1	142130257	6641	43619
1	142152687	6642	43142
1	142175550	6643	44361
1	142197910	6644	42983
1	142220199	6645	42771
1	142242538	6646	42930
1	142265065	6647	43354
1	142287255	6648	42718
1	142309665	6649	43089
1	142332021	6650	43301
1	142354298	6651	42453
1	142376762	6652	43354
1	142399222	6653	43301
1	142421657	6654	43089
1	142443874	6655	42506
1	142466492	6656	44361
1	142489015	6657	43089
1	142511414	6658	42506
1	142533701	6659	43725
1	142556140	6660	43407
1	142578269	6661	42135
1	142600768	6662	43725
1	142623051	6663	43407
1	142645523	6664	42612
1	142667871	6665	43354
1	142690366	6666	43089
1	142712504	6667	42983
1	142735157	6668	43248
1	142757692	6669	43248
1	142779881	6670	43301
1	142802006	6671	42241
1	142824736	6672	44308
1	142846740	6673	41499
1	142869031	6674	43089
1	142891495	6675	43301
1	142913915	6676	42718
1	142936113	6677	42824
1	142958728	6678	43407
1	142980783	6679	42188
1	143003007	6680	42824
1	143025233	6681	42824
1	143047511	6682	43089
1	143069626	6683	41817
1	143092404	6684	44255
1	143114494	6685	42294
1	143136768	6686	42930
1	143159020	6687	42506
1	143181283	6688	42559
1	143203394	6689	43407
1	143225803	6690	42665
1	143247987	6691	42718
1	143270325	6692	43036
1	143292476	6693	42453
1	143314810	6694	43460
1	143336912	6695	42294
1	143359518	6696	43513
1	143381958	6697	42665
1	143404260	6698	42771
1	143426489	6699	43142
1	143449014	6700	43619
1	143471336	6701	42506
1	143493355	6702	42453
1	143515767	6703	43248
1	143537849	6704	42347
1	143560103	6705	43513
1	143582149	6706	42082
1	143604525	6707	43248
1	143626656	6708	42559
1	143649067	6709	42771
1	143671235	6710	42983
1	143693481	6711	42400
1	143715605	6712	42612
1	143738188	6713	43672
1	143760409	6714	42718
1	143782372	6715	42241
1	143804433	6716	42188
1	143826650	6717	43672
1	143848639	6718	41499
1	143870935	6719	42930
1	143893184	6720	42930
1	143915226	6721	42082
1	143937676	6722	44255
1	143959653	6723	42400
1	143981832	6724	42771
1	144003628	6725	41287
1	144026152	6726	43937
1	144048163	6727	42612
1	144070279	6728	42082
1	144092731	6729	44255
1	144114844	6730	42082
1	144137153	6731	42983
1	144159568	6732	43778
1	144181753	6733	41711
1	144203947	6734	43142
1	144226219	6735	43195
1	144248584	6736	43831
1	144270544	6737	41817
1	144292758	6738	43089
1	144314743	6739	41976
1	144336851	6740	42718
1	144359004	6741	42347
1	144381126	6742	42930
1	144403226	6743	42930
1	144425248	6744	42506
1	144447063	6745	42135
1	144469288	6746	42824
1	144491479	6747	42877
1	144513636	6748	43248
1	144535597	6749	41393
1	144557729	6750	43195
1	144579590	6751	41923
1	144601682	6752	43460
1	144623947	6753	42453
1	144646291	6754	43407
1	144668550	6755	42718
1	144690491	6756	41605
1	144712344	6757	42506
1	144734285	6758	42824
1	144756296	6759	42241
1	144778536	6760	43195
1	144800411	6761	42188
1	144822514	6762	42453
1	144844325	6763	41658
1	144866379	6764	42347
1	144888256	6765	42612
1	144910363	6766	42983
1	144932557	6767	42824
1	144954630	6768	42824
1	144976436	6769	41605
1	144998533	6770	42347
1	145020881	6771	43248
1	145043026	6772	43195
1	145065128	6773	42930
1	145087271	6774	42294
1	145109248	6775	42400
1	145131141	6776	42771
1	145153159	6777	42082
1	145175508	6778	42824
1	145197536	6779	42930
1	145219547	6780	42612
1	145241815	6781	43089
1	145264009	6782	42400
1	145286196	6783	43142
1	145308468	6784	42983
1	145330655	6785	43036
1	145352935	6786	42506
1	145375148	6787	42612
1	145397254	6788	42188
1	145419315	6789	43301
1	145441573	6790	42718
1	145463537	6791	42294
1	145485665	6792	42188
1	145507606	6793	42877
1	145529696	6794	41976
1	145551878	6795	42930
1	145573766	6796	42188
1	145596123	6797	43195
1	145618336	6798	42612
1	145640607	6799	43195
1	145662704	6800	42241
1	145684852	6801	43195
1	145707102	6802	42930
1	145729134	6803	42665
1	145751364	6804	42506
1	145773640	6805	42824
1	145795797	6806	43089
1	145817977	6807	42665
1	145840147	6808	42506
1	145862419	6809	42771
1	145884379	6810	43248
1	145906546	6811	42506
1	145928920	6812	43301
1	145951373	6813	43142
1	145973790	6814	43354
1	145996141	6815	42877
1	146018465	6816	43566
1	146040917	6817	43089
1	146063376	6818	43248
1	146085147	6819	41923
1	146107397	6820	42824
1	146129518	6821	42559
1	146152001	6822	43195
1	146174299	6823	43195
1	146196514	6824	42135
1	146219194	6825	44361
1	146241445	6826	42400
1	146263701	6827	43089
1	146286148	6828	43460
1	146308164	6829	41976
1	146330356	6830	43036
1	146352769	6831	43831
1	146375093	6832	43195
1	146397137	6833	41605
1	146419675	6834	43566
1	146441956	6835	43089
1	146464283	6836	43089
1	146486474	6837	42877
1	146508806	6838	43036
1	146531108	6839	42983
1	146553220	6840	42559
1	146575467	6841	43195
1	146597581	6842	42241
1	146619887	6843	42771
1	146641861	6844	42135
1	146664128	6845	42718
1	146686286	6846	43142
1	146708757	6847	42877
1	146730943	6848	43354
1	146752962	6849	42135
1	146775376	6850	43460
1	146797466	6851	41976
1	146819618	6852	43248
1	146841722	6853	42294
1	146863823	6854	42294
1	146885791	6855	42718
1	146908102	6856	42612
1	146930004	6857	42400
1	146952101	6858	42718
1	146974145	6859	42082
1	146996201	6860	42824
1	147018422	6861	42983
1	147040672	6862	42665
1	147062728	6863	42665
1	147085279	6864	43513
1	147107307	6865	42400
1	147129199	6866	42506
1	147151284	6867	42294
1	147173719	6868	43672
1	147195977	6869	42665
1	147218177	6870	42877
1	147240668	6871	43407
1	147263007	6872	42983
1	147285384	6873	43460
1	147307501	6874	42877
1	147329935	6875	43513
1	147351836	6876	41870
1	147373879	6877	42665
1	147396255	6878	43460
1	147418487	6879	42400
1	147440822	6880	42665
1	147462982	6881	42559
1	147485473	6882	43513
1	147507479	6883	42188
1	147530031	6884	43990
1	147552242	6885	42771
1	147574465	6886	42983
1	147596961	6887	43195
1	147619086	6888	42453
1	147641228	6889	42930
1	147663520	6890	43036
1	147685816	6891	42930
1	147708065	6892	43301
1	147730334	6893	42241
1	147752579	6894	43301
1	147774908	6895	42877
1	147797439	6896	44043
1	147819736	6897	42718
1	147842180	6898	42930
1	147864622	6899	43142
1	147886812	6900	42877
1	147908970	6901	42877
1	147931212	6902	43195
1	147953344	6903	42771
1	147975766	6904	42983
1	147997997	6905	42771
1	148020139	6906	42294
1	148042365	6907	43142
1	148064659	6908	43195
1	148086885	6909	42665
1	148109357	6910	42930
1	148131790	6911	43831
1	148153722	6912	42082
1	148176172	6913	43619
1	148198081	6914	41870
1	148220318	6915	42771
1	148242558	6916	42559
1	148265008	6917	43566
1	148287129	6918	42188
1	148309476	6919	42824
1	148331874	6920	43354
1	148354173	6921	43301
1	148376327	6922	42506
1	148398669	6923	43142
1	148420980	6924	43248
1	148443507	6925	43513
1	148465768	6926	42612
1	148488088	6927	43142
1	148510200	6928	42400
1	148532357	6929	43354
1	148554588	6930	42877
1	148577068	6931	43407
1	148599025	6932	42241
1	148621149	6933	42453
1	148643514	6934	43301
1	148665691	6935	42771
1	148688069	6936	42930
1	148710425	6937	43301
1	148732779	6938	43248
1	148755281	6939	43672
1	148777486	6940	42718
1	148799701	6941	43089
1	148822276	6942	43142
1	148844437	6943	42877
1	148866885	6944	43089
1	148889222	6945	43142
1	148911525	6946	43089
1	148933656	6947	42559
1	148956085	6948	42877
1	148978703	6949	43566
1	149001160	6950	43354
1	149023689	6951	43778
1	149046107	6952	43036
1	149068734	6953	43831
1	149091142	6954	43142
1	149113550	6955	43036
1	149135780	6956	42612
1	149158051	6957	42983
1	149180262	6958	42188
1	149202259	6959	42294
1	149224869	6960	43884
1	149246969	6961	42082
1	149269484	6962	43672
1	149291856	6963	43195
1	149314077	6964	42930
1	149336019	6965	42506
1	149358400	6966	42718
1	149380612	6967	42771
1	149402906	6968	43301
1	149425216	6969	42506
1	149447608	6970	43089
1	149469975	6971	43672
1	149492359	6972	42983
1	149514520	6973	42718
1	149537087	6974	43513
1	149559674	6975	44255
1	149581895	6976	41870
1	149603784	6977	42612
1	149626111	6978	42877
1	149647954	6979	42082
1	149670336	6980	43036
1	149692291	6981	42612
1	149714439	6982	42983
1	149736534	6983	42506
1	149758698	6984	42824
1	149780644	6985	42188
1	149802884	6986	42824
1	149824907	6987	42983
1	149846944	6988	42665
1	149869225	6989	42506
1	149891283	6990	43089
1	149913444	6991	42135
1	149935953	6992	43725
1	149958052	6993	42135
1	149980204	6994	42718
1	150002383	6995	42453
1	150024548	6996	43089
1	150046827	6997	43089
1	150068852	6998	41817
1	150090972	6999	42718
1	150113213	7000	43248
1	150135252	7001	41870
1	150157635	7002	44096
1	150179700	7003	42188
1	150201803	7004	42559
1	150223963	7005	42824
1	150245944	7006	42241
1	150268448	7007	43142
1	150290658	7008	42771
1	150312606	7009	42082
1	150334942	7010	43407
1	150357218	7011	42930
1	150379339	7012	42718
1	150401590	7013	42612
1	150423562	7014	42877
1	150445643	7015	42135
1	150467830	7016	43142
1	150489951	7017	42559
1	150512398	7018	43248
1	150534373	7019	42294
1	150556768	7020	43354
1	150578962	7021	42559
1	150601322	7022	43301
1	150623491	7023	42771
1	150645789	7024	43195
1	150667876	7025	42347
1	150690334	7026	43831
1	150712299	7027	42506
1	150734519	7028	42718
1	150756678	7029	42930
1	150778813	7030	42188
1	150800882	7031	42506
1	150823405	7032	44096
1	150845790	7033	42453
1	150867966	7034	43513
1	150890088	7035	42718
1	150912032	7036	42135
1	150934319	7037	42612
1	150956634	7038	43301
1	150978739	7039	42665
1	151001108	7040	43248
1	151023182	7041	42665
1	151045195	7042	42347
1	151067020	7043	42135
1	151089618	7044	43672
1	151111994	7045	43354
1	151133923	7046	42347
1	151156221	7047	43301
1	151178749	7048	43566
1	151200975	7049	42771
1	151223415	7050	43142
1	151245565	7051	42824
1	151267521	7052	42506
1	151289929	7053	42877
1	151312133	7054	43036
1	151334251	7055	42612
1	151356389	7056	42824
1	151378474	7057	42294
1	151400259	7058	42029
1	151422340	7059	42135
1	151444591	7060	43248
1	151466602	7061	42294
1	151488771	7062	42400
1	151510739	7063	42824
1	151532700	7064	42294
1	151554873	7065	43089
1	151577037	7066	42559
1	151598728	7067	41711
1	151621052	7068	43195
1	151643121	7069	42718
1	151665151	7070	42082
1	151687134	7071	42824
1	151708967	7072	41817
1	151731286	7073	43407
1	151753876	7074	43619
1	151775866	7075	42294
1	151798003	7076	42453
1	151820176	7077	42824
1	151841916	7078	42241
1	151864002	7079	42559
1	151886092	7080	42718
1	151908005	7081	42453
1	151930043	7082	42135
1	151952093	7083	42135
1	151974147	7084	42718
1	151996099	7085	42877
1	152018414	7086	43142
1	152040804	7087	43248
1	152063011	7088	42824
1	152085283	7089	43407
1	152107430	7090	42294
1	152129815	7091	43513
1	152152024	7092	42665
1	152174284	7093	42930
1	152196777	7094	44043
1	152218814	7095	42135
1	152240998	7096	43195
1	152263068	7097	42665
1	152285285	7098	42877
1	152307363	7099	42241
1	152329570	7100	43195
1	152351653	7101	41923
1	152373766	7102	43725
1	152396103	7103	42930
1	152418045	7104	42347
1	152440569	7105	43195
1	152462816	7106	43460
1	152484754	7107	41817
1	152506882	7108	43248
1	152528972	7109	42665
1	152551174	7110	42824
1	152573506	7111	43195
1	152595686	7112	42824
1	152617654	7113	42453
1	152639954	7114	42983
1	152662160	7115	42453
1	152684284	7116	43195
1	152706545	7117	43089
1	152728928	7118	43513
1	152750954	7119	42400
1	152773057	7120	42135
1	152795089	7121	43195
1	152817144	7122	42665
1	152839267	7123	42612
1	152861435	7124	42983
1	152883727	7125	43301
1	152906035	7126	42930
1	152928328	7127	42930
1	152950748	7128	43195
1	152972968	7129	42930
1	152995299	7130	42824
1	153017491	7131	42877
1	153039700	7132	43407
1	153061833	7133	42135
1	153084031	7134	42877
1	153106301	7135	43195
1	153128585	7136	43036
1	153150808	7137	42718
1	153173094	7138	42877
1	153195358	7139	43460
1	153217527	7140	42665
1	153239864	7141	42877
1	153262267	7142	42877