version 2
run QLearnCC-0-20100909-16:17:43-6012
attr configname QLearnCC
attr datetime 20100909-16:17:43
attr experiment QLearnCC
attr inifile D:/Developement/Oversim2/multic/simulations/omnetpp.ini
attr iterationvars $rateIncoming=400000
attr iterationvars2 "$rateIncoming=400000, $repetition=0"
attr measurement $rateIncoming=400000
attr network oversim.underlay.simpleunderlay.SimpleUnderlayNetwork
attr processid 6012
attr rateIncoming 400000
attr repetition 0
attr replication #0
attr resultdir results
attr runnumber 0
attr seedset 0

vector 1  SimpleUnderlayNetwork.globalObserver.globalStatistics  incoming_bytes  ETV
vector 2  SimpleUnderlayNetwork.globalObserver.globalStatistics  drops  ETV
vector 3  SimpleUnderlayNetwork.globalObserver.globalStatistics  delayed_acks  ETV
vector 4  SimpleUnderlayNetwork.globalObserver.globalStatistics  timetotimeouts  ETV
vector 5  SimpleUnderlayNetwork.globalObserver.globalStatistics  9rateOf1To0  ETV
vector 6  SimpleUnderlayNetwork.globalObserver.globalStatistics  max9RateOf1To0  ETV
vector 7  SimpleUnderlayNetwork.globalObserver.globalStatistics  9rateOf1To1  ETV
vector 8  SimpleUnderlayNetwork.globalObserver.globalStatistics  max9RateOf1To1  ETV
vector 9  SimpleUnderlayNetwork.globalObserver.globalStatistics  9rateOf1To2  ETV
vector 10  SimpleUnderlayNetwork.globalObserver.globalStatistics  max9RateOf1To2  ETV
vector 11  SimpleUnderlayNetwork.globalObserver.globalStatistics  9rateOf1To3  ETV
vector 12  SimpleUnderlayNetwork.globalObserver.globalStatistics  max9RateOf1To3  ETV
vector 13  SimpleUnderlayNetwork.globalObserver.globalStatistics  9rateOf1To4  ETV
vector 14  SimpleUnderlayNetwork.globalObserver.globalStatistics  max9RateOf1To4  ETV
vector 15  SimpleUnderlayNetwork.globalObserver.globalStatistics  9rateOf1To5  ETV
vector 16  SimpleUnderlayNetwork.globalObserver.globalStatistics  max9RateOf1To5  ETV
vector 17  SimpleUnderlayNetwork.globalObserver.globalStatistics  9rateOf1To6  ETV
vector 18  SimpleUnderlayNetwork.globalObserver.globalStatistics  max9RateOf1To6  ETV
vector 19  SimpleUnderlayNetwork.globalObserver.globalStatistics  9rateOf1To7  ETV
vector 20  SimpleUnderlayNetwork.globalObserver.globalStatistics  max9RateOf1To7  ETV
vector 21  SimpleUnderlayNetwork.globalObserver.globalStatistics  9rateOf1To8  ETV
vector 22  SimpleUnderlayNetwork.globalObserver.globalStatistics  max9RateOf1To8  ETV
vector 23  SimpleUnderlayNetwork.globalObserver.globalStatistics  9rateOf1To9  ETV
vector 24  SimpleUnderlayNetwork.globalObserver.globalStatistics  max9RateOf1To9  ETV
vector 25  SimpleUnderlayNetwork.globalObserver.globalStatistics  1rate  ETV
vector 26  SimpleUnderlayNetwork.globalObserver.globalStatistics  max2Rate  ETV
vector 27  SimpleUnderlayNetwork.globalObserver.globalStatistics  "GlobalNodeList: Number of nodes"  ETV
vector 28  SimpleUnderlayNetwork.globalObserver.globalStatistics  "GlobalNodeList: Number of bootstrapped malicious nodes"  ETV
1	251728832	6019	85224
1	251772256	6020	84164
1	251815036	6021	81832
1	251858341	6022	84217
1	251901791	6023	83899
1	251945168	6024	84906
1	251988492	6025	82786
1	252032071	6026	85701
1	252075466	6027	82839
1	252118495	6028	83634
1	252162197	6029	84111
1	252205800	6030	84800
1	252249360	6031	85065
1	252292561	6032	83475
1	252335792	6033	83687
1	252379210	6034	84694
1	252422449	6035	83316
1	252465473	6036	82680
1	252508585	6037	83687
1	252551915	6038	83316
1	252595252	6039	85118
1	252638493	6040	83104
1	252681838	6041	84217
1	252725349	6042	84906
1	252768739	6043	84270
1	252812020	6044	82839
1	252855226	6045	83740
1	252898742	6046	84906
1	252941645	6047	83263
1	252984928	6048	83475
1	253028227	6049	83157
1	253071670	6050	85754
1	253114628	6051	82574
1	253157850	6052	82680
1	253201678	6053	85542
1	253245379	6054	85542
1	253288508	6055	82733
1	253331952	6056	83687
1	253375035	6057	83634
1	253418734	6058	84694
1	253462245	6059	84906
1	253505390	6060	82892
1	253548683	6061	84111
1	253592007	6062	84058
1	253635418	6063	85224
1	253678532	6064	81938
1	253722063	6065	84641
1	253765081	6066	83740
1	253808753	6067	84747
1	253852212	6068	83528
1	253895344	6069	84323
1	253938645	6070	83581
1	253982201	6071	84641
1	254025645	6072	84641
1	254068593	6073	82945
1	254111945	6074	84217
1	254155124	6075	83846
1	254198624	6076	84482
1	254241962	6077	83952
1	254285066	6078	84058
1	254328511	6079	83899
1	254371641	6080	84005
1	254414506	6081	82309
1	254458030	6082	84694
1	254500983	6083	82256
1	254544596	6084	85489
1	254587853	6085	82680
1	254631167	6086	83952
1	254674317	6087	84694
1	254717982	6088	84853
1	254761223	6089	83475
1	254804230	6090	82998
1	254847692	6091	85224
1	254890681	6092	82733
1	254933488	6093	82839
1	254976922	6094	84641
1	255020133	6095	83369
1	255063062	6096	82892
1	255106475	6097	84535
1	255149461	6098	83210
1	255192730	6099	84641
1	255236036	6100	83687
1	255279749	6101	84111
1	255322538	6102	82521
1	255365888	6103	84535
1	255408920	6104	83846
1	255452325	6105	83740
1	255495604	6106	84376
1	255538413	6107	81514
1	255582149	6108	85913
1	255625453	6109	83475
1	255669067	6110	84535
1	255711835	6111	83581
1	255755234	6112	84217
1	255798165	6113	82362
1	255841204	6114	83899
1	255884220	6115	83210
1	255927069	6116	83316
1	255970603	6117	84111
1	256013944	6118	84217
1	256057253	6119	83793
1	256100087	6120	83157
1	256143333	6121	83422
1	256186411	6122	84005
1	256229979	6123	84588
1	256273229	6124	84058
1	256316511	6125	83634
1	256359706	6126	83581
1	256402830	6127	83634
1	256445766	6128	82574
1	256489289	6129	85383
1	256532189	6130	83475
1	256575976	6131	83952
1	256618987	6132	83104
1	256662171	6133	84270
1	256704951	6134	82256
1	256748363	6135	84429
1	256791567	6136	83422
1	256834198	6137	82839
1	256877035	6138	83475
1	256920278	6139	83104
1	256963863	6140	84588
1	257007229	6141	83899
1	257049758	6142	82786
1	257093149	6143	83634
1	257136011	6144	82733
1	257179497	6145	84641
1	257222626	6146	83369
1	257265709	6147	83846
1	257308922	6148	84111
1	257351999	6149	83263
1	257395130	6150	82998
1	257438437	6151	84111
1	257482208	6152	85224
1	257525375	6153	83422
1	257568352	6154	82998
1	257611336	6155	82786
1	257654452	6156	84164
1	257697570	6157	83846
1	257740676	6158	82892
1	257783870	6159	84482
1	257827047	6160	83581
1	257870586	6161	84694
1	257914245	6162	83952
1	257957433	6163	83846
1	258000636	6164	83369
1	258043654	6165	83634
1	258086872	6166	83899
1	258129535	6167	82097
1	258172919	6168	84588
1	258216106	6169	83952
1	258258895	6170	82521
1	258302446	6171	84641
1	258345719	6172	84376
1	258388572	6173	82150
1	258432220	6174	84853
1	258475499	6175	83634
1	258518056	6176	81514
1	258561290	6177	84429
1	258604507	6178	85065
1	258647165	6179	82362
1	258690747	6180	83581
1	258733699	6181	83687
1	258777240	6182	84800
1	258820571	6183	83634
1	258863803	6184	84164
1	258906218	6185	82097
1	258949816	6186	84747
1	258992709	6187	82786
1	259035811	6188	83528
1	259079128	6189	84429
1	259122381	6190	83740
1	259165616	6191	83687
1	259208692	6192	83104
1	259251960	6193	84058
1	259295156	6194	83369
1	259338467	6195	83687
1	259381594	6196	83210
1	259425173	6197	86390
1	259467918	6198	81991
1	259511041	6199	83793
1	259553975	6200	83157
1	259597612	6201	84800
1	259640488	6202	82892
1	259683563	6203	83634
1	259726580	6204	84005
1	259770484	6205	84164
1	259813370	6206	83369
1	259856261	6207	82786
1	259899848	6208	85118
1	259942858	6209	83210
1	259986309	6210	84270
1	260029251	6211	82627
1	260072658	6212	84376
1	260116096	6213	84429
1	260159009	6214	82415
1	260202177	6215	84111
1	260245159	6216	82998
1	260288393	6217	83528
1	260331722	6218	85065
1	260374994	6219	82945
1	260418039	6220	84217
1	260461550	6221	84164
1	260504836	6222	84535
1	260547878	6223	82998
1	260591009	6224	83422
1	260634102	6225	84694
1	260677497	6226	83316
1	260720660	6227	83475
1	260764203	6228	85118
1	260807141	6229	83210
1	260850368	6230	83634
1	260893654	6231	84164
1	260936823	6232	83634
1	260980151	6233	83899
1	261023720	6234	85224
1	261066407	6235	81726
1	261109456	6236	83687
1	261152989	6237	84800
1	261195860	6238	82468
1	261239441	6239	84429
1	261282715	6240	84164
1	261326057	6241	84217
1	261369967	6242	85012
1	261413144	6243	84111
1	261456357	6244	83687
1	261499559	6245	83634
1	261542829	6246	84005
1	261586377	6247	84694
1	261629076	6248	82362
1	261672455	6249	84005
1	261715842	6250	84058
1	261758902	6251	83634
1	261802270	6252	84058
1	261845283	6253	83475
1	261888646	6254	84376
1	261932442	6255	84535
1	261975441	6256	83157
1	262018406	6257	83104
1	262062122	6258	85118
1	262105611	6259	84323
1	262148865	6260	83899
1	262192033	6261	83210
1	262235724	6262	85277
1	262279321	6263	84641
1	262322300	6264	82680
1	262365709	6265	85065
1	262408776	6266	81673
1	262452125	6267	84906
1	262495524	6268	84164
1	262538897	6269	83740
1	262582238	6270	84005
1	262625442	6271	83899
1	262668492	6272	82733
1	262712198	6273	85224
1	262755448	6274	83793
1	262798447	6275	83687
1	262842306	6276	84217
1	262885966	6277	85330
1	262929153	6278	84058
1	262972634	6279	83793
1	263015893	6280	84429
1	263058990	6281	83263
1	263102555	6282	84800
1	263145889	6283	83581
1	263188647	6284	82839
1	263231769	6285	83687
1	263275075	6286	84058
1	263318125	6287	84535
1	263361886	6288	84111
1	263405097	6289	83687
1	263448251	6290	84588
1	263491700	6291	83475
1	263535107	6292	83846
1	263578892	6293	84429
1	263622047	6294	84429
1	263665655	6295	84376
1	263709149	6296	84694
1	263752233	6297	82892
1	263795805	6298	84853
1	263839175	6299	84217
1	263882789	6300	83687
1	263925868	6301	84005
1	263969187	6302	84111
1	264012353	6303	83634
1	264055666	6304	83051
1	264099183	6305	85489
1	264142434	6306	83157
1	264185712	6307	84217
1	264229142	6308	84482
1	264272581	6309	83952
1	264315720	6310	84747
1	264359340	6311	83475
1	264402486	6312	83687
1	264445894	6313	84800
1	264489308	6314	83157
1	264532508	6315	83740
1	264575683	6316	84323
1	264618987	6317	83475
1	264662635	6318	84058
1	264705836	6319	83846
1	264749426	6320	84535
1	264792541	6321	82786
1	264835943	6322	85171
1	264879093	6323	82733
1	264922536	6324	84747
1	264965878	6325	84164
1	265009165	6326	83740
1	265052095	6327	82309
1	265095784	6328	85542
1	265139033	6329	83740
1	265182413	6330	84111
1	265226249	6331	84906
1	265269278	6332	83952
1	265312571	6333	82627
1	265356122	6334	84323
1	265399482	6335	84005
1	265443088	6336	84535
1	265486495	6337	84588
1	265529563	6338	83263
1	265573223	6339	84058
1	265616904	6340	84800
1	265659615	6341	83263
1	265703386	6342	85012
1	265746778	6343	83687
1	265789801	6344	83104
1	265833192	6345	84535
1	265876489	6346	83793
1	265919678	6347	83581
1	265963223	6348	83846
1	266006095	6349	84323
1	266049759	6350	84376
1	266093169	6351	83793
1	266136194	6352	83475
1	266179545	6353	83051
1	266222675	6354	83952
1	266265839	6355	83422
1	266309735	6356	85542
1	266353050	6357	84164
1	266396324	6358	83210
1	266439486	6359	84588
1	266482817	6360	83104
1	266526555	6361	85171
1	266569667	6362	83051
1	266612862	6363	83634
1	266656302	6364	84058
1	266700085	6365	85012
1	266743844	6366	84694
1	266787404	6367	84482
1	266831054	6368	85277
1	266874266	6369	81991
1	266917210	6370	84959
1	266960665	6371	83581
1	267003897	6372	83475
1	267047408	6373	84058
1	267090538	6374	82945
1	267133765	6375	84482
1	267177364	6376	84323
1	267220733	6377	83952
1	267264230	6378	84694
1	267307766	6379	83634
1	267351297	6380	84694
1	267394498	6381	83687
1	267438062	6382	84005
1	267481607	6383	84588
1	267524993	6384	84111
1	267568641	6385	84535
1	267612178	6386	84217
1	267655886	6387	85330
1	267699417	6388	83846
1	267742670	6389	84005
1	267785808	6390	83528
1	267829196	6391	84217
1	267872685	6392	84058
1	267915827	6393	83634
1	267959646	6394	84853
1	268003135	6395	83528
1	268046385	6396	84694
1	268089764	6397	84111
1	268133477	6398	84694
1	268176848	6399	84111
1	268220464	6400	84800
1	268263888	6401	84058
1	268307122	6402	83740
1	268350986	6403	84959
1	268394150	6404	83846
1	268437612	6405	83634
1	268481251	6406	85860
1	268524651	6407	84323
1	268568401	6408	84111
1	268612045	6409	85277
1	268655378	6410	83422
1	268699190	6411	85065
1	268742138	6412	82839
1	268785508	6413	84323
1	268829195	6414	84323
1	268872745	6415	83581
1	268916128	6416	84959
1	268959610	6417	84376
1	269003248	6418	83899
1	269046266	6419	83581
1	269089561	6420	84058
1	269133176	6421	84641
1	269176697	6422	84535
1	269220021	6423	83687
1	269263807	6424	85860
1	269307019	6425	82733
1	269350365	6426	83740
1	269393662	6427	83634
1	269437427	6428	85383
1	269481259	6429	84959
1	269524618	6430	83369
1	269568118	6431	85277
1	269611730	6432	83846
1	269654627	6433	83740
1	269698055	6434	83846
1	269741798	6435	85330
1	269785197	6436	83316
1	269828890	6437	85807
1	269872119	6438	83369
1	269915245	6439	83422
1	269958631	6440	84111
1	270001903	6441	84535
1	270045264	6442	83952
1	270088895	6443	84217
1	270132107	6444	83528
1	270175454	6445	84588
1	270218428	6446	83104
1	270261920	6447	84323
1	270305373	6448	84323
1	270349052	6449	84376
1	270392323	6450	84429
1	270435551	6451	83316
1	270479062	6452	84482
1	270522560	6453	84588
1	270566176	6454	83899
1	270609581	6455	84429
1	270652774	6456	83740
1	270696205	6457	84005
1	270739556	6458	83846
1	270783218	6459	85383
1	270826515	6460	83687
1	270870097	6461	84853
1	270913590	6462	84005
1	270956967	6463	84641
1	271000217	6464	83263
1	271043861	6465	84853
1	271087261	6466	84482
1	271130703	6467	84111
1	271174361	6468	84535
1	271218128	6469	85277
1	271261503	6470	83846
1	271305048	6471	84376
1	271348377	6472	84747
1	271392137	6473	84482
1	271435280	6474	83793
1	271478694	6475	83740
1	271521616	6476	83422
1	271565343	6477	84588
1	271609104	6478	85065
1	271652550	6479	84164
1	271696130	6480	84164
1	271739669	6481	84853
1	271783814	6482	85648
1	271827051	6483	83581
1	271870073	6484	83263
1	271913910	6485	84588
1	271957121	6486	83581
1	272000585	6487	84853
1	272043678	6488	83952
1	272086971	6489	84058
1	272130117	6490	82892
1	272173629	6491	84747
1	272216752	6492	83475
1	272259881	6493	83740
1	272303518	6494	84959
1	272346683	6495	82627
1	272390164	6496	84588
1	272433405	6497	82998
1	272476905	6498	85383
1	272520168	6499	82945
1	272563663	6500	85330
1	272607223	6501	83634
1	272650520	6502	83846
1	272693688	6503	84164
1	272736927	6504	83634
1	272780699	6505	84853
1	272823769	6506	82468
1	272867563	6507	85330
1	272910984	6508	83899
1	272954347	6509	84800
1	272997785	6510	84323
1	273041114	6511	84906
1	273084568	6512	83528
1	273127660	6513	83210
1	273171775	6514	85913
1	273215177	6515	83952
1	273258163	6516	82680
1	273302087	6517	85595
1	273344898	6518	83157
1	273388777	6519	85118
1	273432215	6520	84429
1	273475332	6521	82998
1	273519066	6522	85489
1	273562103	6523	82733
1	273605227	6524	83952
1	273648651	6525	84217
1	273692066	6526	84270
1	273735335	6527	83422
1	273778977	6528	85118
1	273822516	6529	83740
1	273865702	6530	84429
1	273909313	6531	84747
1	273952520	6532	83581
1	273996081	6533	84641
1	274039291	6534	83687
1	274082746	6535	84482
1	274126512	6536	85224
1	274169675	6537	83051
1	274213298	6538	84800
1	274256686	6539	83952
1	274299986	6540	84482
1	274343061	6541	83793
1	274386203	6542	83793
1	274429115	6543	82415
1	274472515	6544	84270
1	274515913	6545	83846
1	274559718	6546	85277
1	274603097	6547	83793
1	274646553	6548	84058
1	274690155	6549	85701
1	274733149	6550	82203
1	274776928	6551	85595
1	274820586	6552	84111
1	274863875	6553	84217
1	274906987	6554	83422
1	274950778	6555	84694
1	274994364	6556	84588
1	275037766	6557	83316
1	275081239	6558	84906
1	275124880	6559	84535
1	275168354	6560	84747
1	275211810	6561	84217
1	275255110	6562	84164
1	275298625	6563	84164
1	275342104	6564	84111
1	275385249	6565	83952
1	275428859	6566	83793
1	275472589	6567	85383
1	275515735	6568	83952
1	275559677	6569	84959
1	275602591	6570	82892
1	275646312	6571	84641
1	275689298	6572	83687
1	275733115	6573	84270
1	275776390	6574	83846
1	275820389	6575	85542
1	275863217	6576	82680
1	275907175	6577	85860
1	275950049	6578	81832
1	275993378	6579	84694
1	276036877	6580	84641
1	276080124	6581	82945
1	276123842	6582	85277
1	276167421	6583	84217
1	276210780	6584	84058
1	276253830	6585	82839
1	276297293	6586	84588
1	276340866	6587	84429
1	276384245	6588	85065
1	276427901	6589	84270
1	276471383	6590	83793
1	276515027	6591	84217
1	276558304	6592	84694
1	276601552	6593	83051
1	276644826	6594	83899
1	276688300	6595	85224
1	276732137	6596	84323
1	276774908	6597	82309
1	276818764	6598	84641
1	276862360	6599	84535
1	276905296	6600	83581
1	276948410	6601	83210
1	276991957	6602	85012
1	277035164	6603	82839
1	277078309	6604	83634
1	277121845	6605	85118
1	277165024	6606	83316
1	277207852	6607	82998
1	277250838	6608	83210
1	277294955	6609	84906
1	277337874	6610	82945
1	277381570	6611	84853
1	277424792	6612	84217
1	277467894	6613	82680
1	277511319	6614	84270
1	277555075	6615	85012
1	277598120	6616	83846
1	277641550	6617	83846
1	277684577	6618	83634
1	277728150	6619	83952
1	277771155	6620	83422
1	277814766	6621	85012
1	277857453	6622	82574
1	277900844	6623	83422
1	277944558	6624	84906
1	277987828	6625	83263
1	278030961	6626	83740
1	278074519	6627	85118
1	278117955	6628	83687
1	278161265	6629	83581
1	278204219	6630	84058
1	278247754	6631	83369
1	278291438	6632	85966
1	278334730	6633	83369
1	278377960	6634	83687
1	278421045	6635	82362
1	278464381	6636	85330
1	278507436	6637	82945
1	278550174	6638	82945
1	278593427	6639	83581
1	278636502	6640	82998
1	278679610	6641	83422
1	278722806	6642	83846
1	278766053	6643	83634
1	278809052	6644	83793
1	278852186	6645	82998
1	278895767	6646	84376
1	278938662	6647	83899
1	278981964	6648	82786
1	279024907	6649	83475
1	279068005	6650	83263
1	279111711	6651	85065
1	279154670	6652	82627
1	279198091	6653	84323
1	279241509	6654	84641
1	279284831	6655	83210
1	279327987	6656	84429
1	279370982	6657	83316
1	279413956	6658	82998
1	279457189	6659	83581
1	279500733	6660	83740
1	279543993	6661	84058
1	279587475	6662	84217
1	279630510	6663	83687
1	279673823	6664	83581
1	279717210	6665	84800
1	279760886	6666	83422
1	279803993	6667	83422
1	279847168	6668	84270
1	279890398	6669	83793
1	279933278	6670	83157
1	279976734	6671	84482
1	280019848	6672	82998
1	280063675	6673	84853
1	280106476	6674	82733
1	280149454	6675	83104
1	280192909	6676	84164
1	280235806	6677	83157
1	280279173	6678	84482
1	280322167	6679	82680
1	280365196	6680	83793
1	280408596	6681	84270
1	280451787	6682	84217
1	280495238	6683	84058
1	280538653	6684	84058
1	280581919	6685	83475
1	280625048	6686	84111
1	280668018	6687	82521
1	280711409	6688	84058
1	280754649	6689	83634
1	280797693	6690	83369
1	280840888	6691	83793
1	280884570	6692	85277
1	280927805	6693	82892
1	280971058	6694	84641
1	281014603	6695	84482
1	281057726	6696	83899
1	281101045	6697	83263
1	281144016	6698	82362
1	281187734	6699	85754
1	281230852	6700	84111
1	281274781	6701	84111
1	281317987	6702	83952
1	281361497	6703	84482
1	281404637	6704	83369
1	281448279	6705	85118
1	281491723	6706	84270
1	281535220	6707	83475
1	281578913	6708	84535
1	281622138	6709	84376
1	281665751	6710	84641
1	281709043	6711	83634
1	281752663	6712	85542
1	281795773	6713	82415
1	281839196	6714	84270
1	281882672	6715	85012
1	281926098	6716	84058
1	281969305	6717	83581
1	282012936	6718	83952
1	282056601	6719	85277
1	282100091	6720	84217
1	282143645	6721	84058
1	282186901	6722	84588
1	282230576	6723	84429
1	282274176	6724	84694
1	282317651	6725	84164
1	282361382	6726	85065
1	282404864	6727	84164
1	282448250	6728	84111
1	282491503	6729	83846
1	282534805	6730	84217
1	282578120	6731	84164
1	282621413	6732	83687
1	282664952	6733	84588
1	282708293	6734	84270
1	282751865	6735	83846
1	282794795	6736	83157
1	282838225	6737	84323
1	282881566	6738	83740
1	282924549	6739	83952
1	282967963	6740	84005
1	283011154	6741	83846
1	283054635	6742	84747
1	283097587	6743	82786
1	283140830	6744	84429
1	283184568	6745	84641
1	283227722	6746	82998
1	283271266	6747	85171
1	283315009	6748	85065
1	283358328	6749	83899
1	283401649	6750	84111
1	283444712	6751	82627
1	283488091	6752	84376
1	283531419	6753	83793
1	283575199	6754	85277
1	283618525	6755	83687
1	283662094	6756	85065
1	283705166	6757	83422
1	283748513	6758	84270
1	283792029	6759	84588
1	283835321	6760	83104
1	283879136	6761	85701
1	283922587	6762	84429
1	283966071	6763	82892
1	284009115	6764	84111
1	284052947	6765	84853
1	284096317	6766	84005
1	284139753	6767	84482
1	284183060	6768	83581
1	284226256	6769	84270
1	284269434	6770	84005
1	284312616	6771	82998
1	284355776	6772	83846
1	284399167	6773	84535
1	284442870	6774	84005
1	284486066	6775	84217
1	284529169	6776	83369
1	284572536	6777	83422
1	284615860	6778	84641
1	284659040	6779	84005
1	284702597	6780	83793
1	284745908	6781	84376
1	284789016	6782	84217
1	284832318	6783	83369
1	284875532	6784	84111
1	284919143	6785	84270
1	284962418	6786	84270
1	285005894	6787	84800
1	285049275	6788	83740
1	285091839	6789	81514
1	285135294	6790	84535
1	285178877	6791	84111
1	285222397	6792	84376
1	285266117	6793	85277
1	285309116	6794	82998
1	285352354	6795	84429
1	285395814	6796	84164
1	285439379	6797	84005
1	285483111	6798	84800
1	285526589	6799	84853
1	285570340	6800	85012
1	285613161	6801	83210
1	285656530	6802	83263
1	285699933	6803	84800
1	285743753	6804	84429
1	285787246	6805	83793
1	285830544	6806	84535
1	285874183	6807	84906
1	285917576	6808	83316
1	285960902	6809	83952
1	286004020	6810	82998
1	286047494	6811	85595
1	286090455	6812	82521
1	286133627	6813	83051
1	286177272	6814	85171
1	286220781	6815	85489
1	286264168	6816	83528
1	286307418	6817	83157
1	286350625	6818	83634
1	286393777	6819	84164
1	286437368	6820	84111
1	286480691	6821	83952
1	286523498	6822	83051
1	286566921	6823	84482
1	286610284	6824	84535
1	286653522	6825	83528
1	286696932	6826	84164
1	286739681	6827	82097
1	286783532	6828	85807
1	286826535	6829	83634
1	286869941	6830	83634
1	286913222	6831	83740
1	286956836	6832	85012
1	287000406	6833	84535
1	287044072	6834	84482
1	287087447	6835	84376
1	287131065	6836	85118
1	287174558	6837	83369
1	287218555	6838	86125
1	287261639	6839	83157
1	287305235	6840	84535
1	287348596	6841	83740
1	287391906	6842	84005
1	287435531	6843	85065
1	287479122	6844	84747
1	287522725	6845	84853
1	287566110	6846	84747
1	287609476	6847	83051
1	287653264	6848	85648
1	287696510	6849	83528
1	287739769	6850	83952
1	287783437	6851	83952
1	287826650	6852	84005
1	287870386	6853	84959
1	287913803	6854	84270
1	287957505	6855	84906
1	288001179	6856	84270
1	288044422	6857	83581
1	288087904	6858	84906
1	288131277	6859	83634
1	288174721	6860	85065
1	288218453	6861	84482
1	288262383	6862	84482
1	288305688	6863	84694
1	288349016	6864	83846
1	288392562	6865	84376
1	288436102	6866	84270
1	288479314	6867	83952
1	288523138	6868	85754
1	288566256	6869	82521
1	288609910	6870	84270
1	288653283	6871	83369
1	288696850	6872	85436
1	288740851	6873	85065
1	288784344	6874	84694
1	288828199	6875	85330
1	288871545	6876	84164
1	288914836	6877	83899
1	288958907	6878	85383
1	289002333	6879	83687
1	289046279	6880	86019
1	289089807	6881	83475
1	289133830	6882	85436
1	289177933	6883	86019
1	289221390	6884	84005
1	289265431	6885	85913
1	289308981	6886	84376
1	289352970	6887	84906
1	289396752	6888	84800
1	289440084	6889	84270
1	289484232	6890	85012
1	289527860	6891	84906
1	289571432	6892	84482
1	289614890	6893	84694
1	289658812	6894	85012
1	289702464	6895	84694
1	289746064	6896	85489
1	289789727	6897	83793
1	289833080	6898	83422
1	289876907	6899	85489
1	289920219	6900	83475
1	289964242	6901	85436
1	290008003	6902	85807
1	290051867	6903	84906
1	290095136	6904	83104
1	290138971	6905	85224
1	290181920	6906	83263
1	290225616	6907	84747
1	290269108	6908	84217
1	290312979	6909	84747
1	290356630	6910	84906
1	290400343	6911	85012
1	290444227	6912	85065
1	290487425	6913	83210
1	290530923	6914	84959
1	290574403	6915	84535
1	290617787	6916	83369
1	290661135	6917	83952
1	290704675	6918	84800
1	290747991	6919	83846
1	290792029	6920	85171
1	290835268	6921	84535
1	290878943	6922	83846
1	290922164	6923	83740
1	290966001	6924	85330
1	291009772	6925	85118
1	291053593	6926	84429
1	291096728	6927	83475
1	291140885	6928	85913
1	291184519	6929	84164
1	291228154	6930	83952
1	291271557	6931	85065
1	291314714	6932	82892
1	291358581	6933	85595
1	291402479	6934	85118
1	291445614	6935	83104
1	291489302	6936	85118
1	291533008	6937	84217
1	291576642	6938	84694
1	291620343	6939	84376
1	291664135	6940	85171
1	291707617	6941	83263
1	291751597	6942	85966
1	291794742	6943	84323
1	291838423	6944	84164
1	291882318	6945	85277
1	291925532	6946	83369
1	291968982	6947	85171
1	292012975	6948	84270
1	292056313	6949	84429
1	292099998	6950	83899
1	292143750	6951	84906
1	292187252	6952	84482
1	292230572	6953	84270
1	292274176	6954	84376
1	292317732	6955	84535
1	292361544	6956	85224
1	292405128	6957	84376
1	292448964	6958	85171
1	292492613	6959	83687
1	292535994	6960	84270
1	292579297	6961	84800
1	292623020	6962	83422
1	292666629	6963	85648
1	292710162	6964	84747
1	292753894	6965	84535
1	292797541	6966	83581
1	292840745	6967	84588
1	292884060	6968	83210
1	292927532	6969	84959
1	292970972	6970	83528
1	293014356	6971	84535
1	293058298	6972	84959
1	293102000	6973	84482
1	293145588	6974	84217
1	293189251	6975	85118
1	293232742	6976	84906
1	293276492	6977	84747
1	293320117	6978	84482
1	293363579	6979	84588
1	293406975	6980	83687
1	293450226	6981	83899
1	293493972	6982	84747
1	293537451	6983	83740
1	293581109	6984	85701
1	293624283	6985	83475
1	293668145	6986	84800
1	293711218	6987	83316
1	293754536	6988	84270
1	293798474	6989	85065
1	293841822	6990	84058
1	293885627	6991	84535
1	293929570	6992	85224
1	293973284	6993	84588
1	294016813	6994	84270
1	294060311	6995	84906
1	294104189	6996	84217
1	294147481	6997	84641
1	294190896	6998	83899
1	294234558	6999	84747
1	294277989	7000	84217
1	294321442	7001	84164
1	294365240	7002	84800
1	294409036	7003	84429
1	294452937	7004	85860
1	294496426	7005	83899
1	294539676	7006	84747
1	294583658	7007	84429
1	294627345	7008	85436
1	294670836	7009	83316
1	294714358	7010	85542
1	294758112	7011	83528
1	294801841	7012	85436
1	294845427	7013	85171
1	294889105	7014	83740
1	294932589	7015	84747
1	294976330	7016	83846
1	295019641	7017	84641
1	295063240	7018	84535
1	295106723	7019	83687
1	295150151	7020	84270
1	295193359	7021	83263
1	295236768	7022	84800
1	295280008	7023	83793
1	295323358	7024	83581
1	295367261	7025	85754
1	295410738	7026	84641
1	295454487	7027	83952
1	295498087	7028	84323
1	295541780	7029	84323
1	295585142	7030	84482
1	295628540	7031	84217
1	295672367	7032	84217
1	295716067	7033	85118
1	295759736	7034	84164
1	295803543	7035	85065
1	295847435	7036	84323
1	295891110	7037	84959
1	295934887	7038	85489
1	295978504	7039	83528
1	296022296	7040	85118
1	296066146	7041	85012
1	296109780	7042	83952
1	296153460	7043	84694
1	296197080	7044	84482
1	296240639	7045	85171
1	296284667	7046	84747
1	296328655	7047	85860
1	296372348	7048	84429
1	296416181	7049	84641
1	296459793	7050	83899
1	296503165	7051	85012
1	296546719	7052	83899
1	296590075	7053	83952
1	296633808	7054	84164
1	296677085	7055	84641
1	296720788	7056	85224
1	296764375	7057	84747
1	296807526	7058	82733
1	296850829	7059	84747
1	296894659	7060	85542
1	296938075	7061	83422
1	296981582	7062	83899
1	297025435	7063	85489
1	297069189	7064	84959
1	297112736	7065	83634
1	297156535	7066	84641
1	297199569	7067	83263
1	297243537	7068	85383
1	297286972	7069	84217
1	297330654	7070	84694
1	297374119	7071	83316
1	297417911	7072	85383
1	297461749	7073	84853
1	297504954	7074	83793
1	297548730	7075	84800
1	297592095	7076	83952
1	297635774	7077	84376
1	297679679	7078	86019
1	297723454	7079	84853
1	297767266	7080	84376
1	297810721	7081	85012
1	297854110	7082	83740
1	297897419	7083	83475
1	297940806	7084	84588
1	297984582	7085	84906
1	298028407	7086	84323
1	298071816	7087	84376
1	298115524	7088	84588
1	298159254	7089	85065
1	298202588	7090	84058
1	298245851	7091	83740
1	298289434	7092	83740
1	298332833	7093	84429
1	298376466	7094	84959
1	298420185	7095	84323
1	298464057	7096	84853
1	298507776	7097	84906
1	298551332	7098	84323
1	298594802	7099	84376
1	298638509	7100	85118
1	298682220	7101	84005
1	298725602	7102	84800
1	298769179	7103	84800
1	298812902	7104	84535
1	298856196	7105	83687
1	298900013	7106	84959
1	298943644	7107	84270
1	298987203	7108	84641
1	299030888	7109	84959
1	299074681	7110	84429
1	299118457	7111	85065
1	299162119	7112	84959
1	299206095	7113	85330
1	299249260	7114	83157
1	299292962	7115	84694
1	299336147	7116	83793
1	299379793	7117	85118
1	299423287	7118	83740
1	299467045	7119	84853
1	299510801	7120	85489
1	299554082	7121	82627
1	299597869	7122	84800
1	299641020	7123	84111
1	299684626	7124	83687
1	299728469	7125	85595
1	299772068	7126	83581
1	299815250	7127	83899
1	299859126	7128	84800
1	299902894	7129	85489
1	299946061	7130	83210
1	299989254	7131	84376
1	300032819	7132	84058
1	300076398	7133	84800
1	300120008	7134	84270
1	300163699	7135	84853
1	300207230	7136	83846
1	300250452	7137	84323
1	300293944	7138	84429
1	300337452	7139	84217
1	300381287	7140	85224
1	300424825	7141	84217
1	300468498	7142	84747
1	300512162	7143	84376