version 2
run QLearnCC-3-20100909-16:56:54-4140
attr configname QLearnCC
attr datetime 20100909-16:56:54
attr experiment QLearnCC
attr inifile D:/Developement/Oversim2/multic/simulations/omnetpp.ini
attr iterationvars $rateIncoming=100000
attr iterationvars2 "$rateIncoming=100000, $repetition=0"
attr measurement $rateIncoming=100000
attr network oversim.underlay.simpleunderlay.SimpleUnderlayNetwork
attr processid 4140
attr rateIncoming 100000
attr repetition 0
attr replication #0
attr resultdir results
attr runnumber 3
attr seedset 3

vector 1  SimpleUnderlayNetwork.globalObserver.globalStatistics  incoming_bytes  ETV
vector 2  SimpleUnderlayNetwork.globalObserver.globalStatistics  drops  ETV
vector 3  SimpleUnderlayNetwork.globalObserver.globalStatistics  delayed_acks  ETV
vector 4  SimpleUnderlayNetwork.globalObserver.globalStatistics  timetotimeouts  ETV
vector 5  SimpleUnderlayNetwork.globalObserver.globalStatistics  9rateOf1To0  ETV
vector 6  SimpleUnderlayNetwork.globalObserver.globalStatistics  max9RateOf1To0  ETV
vector 7  SimpleUnderlayNetwork.globalObserver.globalStatistics  9rateOf1To1  ETV
vector 8  SimpleUnderlayNetwork.globalObserver.globalStatistics  max9RateOf1To1  ETV
vector 9  SimpleUnderlayNetwork.globalObserver.globalStatistics  9rateOf1To2  ETV
vector 10  SimpleUnderlayNetwork.globalObserver.globalStatistics  max9RateOf1To2  ETV
vector 11  SimpleUnderlayNetwork.globalObserver.globalStatistics  9rateOf1To3  ETV
vector 12  SimpleUnderlayNetwork.globalObserver.globalStatistics  max9RateOf1To3  ETV
vector 13  SimpleUnderlayNetwork.globalObserver.globalStatistics  9rateOf1To4  ETV
vector 14  SimpleUnderlayNetwork.globalObserver.globalStatistics  max9RateOf1To4  ETV
vector 15  SimpleUnderlayNetwork.globalObserver.globalStatistics  9rateOf1To5  ETV
vector 16  SimpleUnderlayNetwork.globalObserver.globalStatistics  max9RateOf1To5  ETV
vector 17  SimpleUnderlayNetwork.globalObserver.globalStatistics  9rateOf1To6  ETV
vector 18  SimpleUnderlayNetwork.globalObserver.globalStatistics  max9RateOf1To6  ETV
vector 19  SimpleUnderlayNetwork.globalObserver.globalStatistics  9rateOf1To7  ETV
vector 20  SimpleUnderlayNetwork.globalObserver.globalStatistics  max9RateOf1To7  ETV
vector 21  SimpleUnderlayNetwork.globalObserver.globalStatistics  9rateOf1To8  ETV
vector 22  SimpleUnderlayNetwork.globalObserver.globalStatistics  max9RateOf1To8  ETV
vector 23  SimpleUnderlayNetwork.globalObserver.globalStatistics  9rateOf1To9  ETV
vector 24  SimpleUnderlayNetwork.globalObserver.globalStatistics  max9RateOf1To9  ETV
vector 25  SimpleUnderlayNetwork.globalObserver.globalStatistics  1rate  ETV
vector 26  SimpleUnderlayNetwork.globalObserver.globalStatistics  max2Rate  ETV
vector 27  SimpleUnderlayNetwork.globalObserver.globalStatistics  "GlobalNodeList: Number of nodes"  ETV
vector 28  SimpleUnderlayNetwork.globalObserver.globalStatistics  "GlobalNodeList: Number of bootstrapped malicious nodes"  ETV
1	62270975	6019	19345
1	62281192	6020	19080
1	62291189	6021	18762
1	62301340	6022	19080
1	62311597	6023	19133
1	62321703	6024	19027
1	62331964	6025	19610
1	62342075	6026	18921
1	62352365	6027	19557
1	62362659	6028	19504
1	62372781	6029	19133
1	62382958	6030	18921
1	62393264	6031	19557
1	62403375	6032	18921
1	62413708	6033	19610
1	62423762	6034	18974
1	62433990	6035	19504
1	62444316	6036	19451
1	62454345	6037	18444
1	62464233	6038	18656
1	62474400	6039	19133
1	62484611	6040	19398
1	62494908	6041	19345
1	62505170	6042	19186
1	62515360	6043	19133
1	62525459	6044	18974
1	62535785	6045	19716
1	62545915	6046	19133
1	62555988	6047	18868
1	62566086	6048	18815
1	62576322	6049	19451
1	62586437	6050	18921
1	62596684	6051	19398
1	62607008	6052	19875
1	62617299	6053	19080
1	62627275	6054	19080
1	62637284	6055	18815
1	62647457	6056	19292
1	62657788	6057	19186
1	62667962	6058	19186
1	62678086	6059	19186
1	62688110	6060	18762
1	62698367	6061	19133
1	62708560	6062	19239
1	62718750	6063	19027
1	62728802	6064	18921
1	62738868	6065	18709
1	62749134	6066	19451
1	62759201	6067	18815
1	62769291	6068	19133
1	62779347	6069	18974
1	62789481	6070	19133
1	62799616	6071	18868
1	62809596	6072	18921
1	62819828	6073	19345
1	62830127	6074	19451
1	62840043	6075	18709
1	62850088	6076	19080
1	62860202	6077	18815
1	62870295	6078	19186
1	62880521	6079	19292
1	62890321	6080	18232
1	62900294	6081	18921
1	62910249	6082	18656
1	62920298	6083	18815
1	62930520	6084	19345
1	62940480	6085	18868
1	62950536	6086	19080
1	62960797	6087	19239
1	62970940	6088	18974
1	62980786	6089	18073
1	62990815	6090	18921
1	63000805	6091	18815
1	63011090	6092	19504
1	63021304	6093	19186
1	63031526	6094	19239
1	63041673	6095	19027
1	63051791	6096	18974
1	63062039	6097	19186
1	63072099	6098	18974
1	63082132	6099	18815
1	63092275	6100	18868
1	63102226	6101	18444
1	63112585	6102	20034
1	63122743	6103	18974
1	63132854	6104	18974
1	63143022	6105	19239
1	63153410	6106	19451
1	63163669	6107	19451
1	63174018	6108	19398
1	63184239	6109	19186
1	63194407	6110	19133
1	63204510	6111	18974
1	63214611	6112	18921
1	63224702	6113	18974
1	63234976	6114	19451
1	63245012	6115	18921
1	63255406	6116	19451
1	63265665	6117	19292
1	63275955	6118	19451
1	63286237	6119	19504
1	63296600	6120	19451
1	63306869	6121	19504
1	63317023	6122	19292
1	63327318	6123	19345
1	63337564	6124	19186
1	63347512	6125	18974
1	63357878	6126	19451
1	63367997	6127	19186
1	63378149	6128	19292
1	63388368	6129	19080
1	63398646	6130	19504
1	63408878	6131	19345
1	63419001	6132	18974
1	63429082	6133	18868
1	63439251	6134	19080
1	63449287	6135	18762
1	63459475	6136	19186
1	63469709	6137	19027
1	63479821	6138	19027
1	63489975	6139	18921
1	63500177	6140	18974
1	63510477	6141	19345
1	63520775	6142	19398
1	63530869	6143	18868
1	63541105	6144	19080
1	63551205	6145	18815
1	63561332	6146	19027
1	63571639	6147	19504
1	63581917	6148	19292
1	63592239	6149	19504
1	63602385	6150	18868
1	63612850	6151	19875
1	63623029	6152	19133
1	63633256	6153	19080
1	63643359	6154	19027
1	63653611	6155	19557
1	63663753	6156	18762
1	63673940	6157	19027
1	63684062	6158	18921
1	63693996	6159	18762
1	63704267	6160	19769
1	63714427	6161	18921
1	63724740	6162	19345
1	63734982	6163	19398
1	63745093	6164	19027
1	63755220	6165	19186
1	63765533	6166	19398
1	63775623	6167	18974
1	63785765	6168	19186
1	63796188	6169	19663
1	63806496	6170	19398
1	63816777	6171	19292
1	63826953	6172	19080
1	63837173	6173	19239
1	63847476	6174	19398
1	63857732	6175	19345
1	63868112	6176	19398
1	63878227	6177	18974
1	63888586	6178	19451
1	63898778	6179	19292
1	63909145	6180	19398
1	63919382	6181	19080
1	63929468	6182	18815
1	63939624	6183	19186
1	63949824	6184	19133
1	63959969	6185	19345
1	63970287	6186	19345
1	63980552	6187	19345
1	63990600	6188	18921
1	64000820	6189	19239
1	64010893	6190	18974
1	64020902	6191	18815
1	64031134	6192	19345
1	64041168	6193	18974
1	64051599	6194	19663
1	64061864	6195	19345
1	64072474	6196	20034
1	64082900	6197	19716
1	64093107	6198	19292
1	64103370	6199	19239
1	64113592	6200	19133
1	64123971	6201	19504
1	64134012	6202	18815
1	64144166	6203	19133
1	64154576	6204	19663
1	64164990	6205	19239
1	64175189	6206	18974
1	64185478	6207	19292
1	64195797	6208	19292
1	64205906	6209	19133
1	64216231	6210	19239
1	64226242	6211	18974
1	64236653	6212	19451
1	64246807	6213	18762
1	64256887	6214	19027
1	64266999	6215	19027
1	64276921	6216	18656
1	64287047	6217	19027
1	64297094	6218	18709
1	64307174	6219	19186
1	64317620	6220	19451
1	64327787	6221	19398
1	64338053	6222	18921
1	64348257	6223	19345
1	64358527	6224	19186
1	64368766	6225	19398
1	64378957	6226	18974
1	64389249	6227	19133
1	64399319	6228	18921
1	64409459	6229	19080
1	64419478	6230	18656
1	64429514	6231	18603
1	64439458	6232	18603
1	64449614	6233	19186
1	64459690	6234	18762
1	64469576	6235	18603
1	64479808	6236	19239
1	64489975	6237	19398
1	64500214	6238	19292
1	64510208	6239	18815
1	64520377	6240	19027
1	64530550	6241	19292
1	64540596	6242	19133
1	64550695	6243	18974
1	64560830	6244	19186
1	64570878	6245	18868
1	64581051	6246	19186
1	64591011	6247	18762
1	64600806	6248	18232
1	64610825	6249	18868
1	64620911	6250	18921
1	64630946	6251	18868
1	64640842	6252	18656
1	64650990	6253	19239
1	64661117	6254	19080
1	64670931	6255	18179
1	64681113	6256	19133
1	64691334	6257	19345
1	64701434	6258	18656
1	64711524	6259	18868
1	64721661	6260	18974
1	64731682	6261	18762
1	64742027	6262	19345
1	64752005	6263	18815
1	64761976	6264	18815
1	64772034	6265	19027
1	64782398	6266	19610
1	64792368	6267	18444
1	64802264	6268	18656
1	64812354	6269	18974
1	64822393	6270	18868
1	64832501	6271	19027
1	64842691	6272	19398
1	64852709	6273	19027
1	64862735	6274	18868
1	64872781	6275	18974
1	64882906	6276	19239
1	64892968	6277	18921
1	64903116	6278	19239
1	64913329	6279	19451
1	64923521	6280	19186
1	64933534	6281	19027
1	64943669	6282	19398
1	64953953	6283	19451
1	64964191	6284	19504
1	64974492	6285	19557
1	64984537	6286	19080
1	64994917	6287	19504
1	65005223	6288	19769
1	65015293	6289	19133
1	65025417	6290	19027
1	65035512	6291	19292
1	65045769	6292	19504
1	65056063	6293	19398
1	65065978	6294	18762
1	65076200	6295	19186
1	65086275	6296	19186
1	65096444	6297	19186
1	65106531	6298	19292
1	65116825	6299	19451
1	65126832	6300	18974
1	65137118	6301	19557
1	65147459	6302	19451
1	65157800	6303	19769
1	65167976	6304	19186
1	65178165	6305	19451
1	65187981	6306	18656
1	65197942	6307	18762
1	65208276	6308	19875
1	65218413	6309	19133
1	65228705	6310	19345
1	65238918	6311	19398
1	65249279	6312	19663
1	65259467	6313	19398
1	65269565	6314	19080
1	65279626	6315	18921
1	65289810	6316	19345
1	65299913	6317	19027
1	65310123	6318	19451
1	65320321	6319	19398
1	65330596	6320	19345
1	65340529	6321	18921
1	65350997	6322	19822
1	65361265	6323	19610
1	65371419	6324	19239
1	65381342	6325	18709
1	65391480	6326	19186
1	65401685	6327	19451
1	65412003	6328	19398
1	65422189	6329	19451
1	65432579	6330	19822
1	65443001	6331	19663
1	65453338	6332	19769
1	65463493	6333	19186
1	65473807	6334	19610
1	65484030	6335	19451
1	65494364	6336	19610
1	65504925	6337	20140
1	65515257	6338	19769
1	65525445	6339	19292
1	65535530	6340	19186
1	65545849	6341	19557
1	65556234	6342	19610
1	65566648	6343	19769
1	65576895	6344	19557
1	65587230	6345	19663
1	65597471	6346	19451
1	65607860	6347	19875
1	65617988	6348	19133
1	65628400	6349	19875
1	65638795	6350	19557
1	65648909	6351	19239
1	65659189	6352	19398
1	65669266	6353	19239
1	65679708	6354	19875
1	65689713	6355	18921
1	65699988	6356	19610
1	65710436	6357	19663
1	65720543	6358	18974
1	65730793	6359	19292
1	65740922	6360	19239
1	65751129	6361	19239
1	65761459	6362	19398
1	65771597	6363	19292
1	65781887	6364	19451
1	65792029	6365	19345
1	65802230	6366	19133
1	65812564	6367	19557
1	65822947	6368	19875
1	65833160	6369	19398
1	65843529	6370	19716
1	65853587	6371	18762
1	65863762	6372	19186
1	65874096	6373	19398
1	65884251	6374	19345
1	65894656	6375	19610
1	65905023	6376	19663
1	65915356	6377	19504
1	65925602	6378	19663
1	65936057	6379	19663
1	65946335	6380	19610
1	65956737	6381	19663
1	65967040	6382	19345
1	65977439	6383	19663
1	65987585	6384	19027
1	65997802	6385	19027
1	66007915	6386	19133
1	66018306	6387	19610
1	66028406	6388	19186
1	66038771	6389	19663
1	66049187	6390	19557
1	66059504	6391	19557
1	66069987	6392	19875
1	66080318	6393	19345
1	66090666	6394	19504
1	66101016	6395	19345
1	66111241	6396	19451
1	66121374	6397	19239
1	66131525	6398	19292
1	66141599	6399	18921
1	66151840	6400	19504
1	66162095	6401	19239
1	66172443	6402	19345
1	66182905	6403	20034
1	66193337	6404	19822
1	66203639	6405	19557
1	66213766	6406	18868
1	66223993	6407	19239
1	66234290	6408	19610
1	66244680	6409	19451
1	66254879	6410	19186
1	66265178	6411	19663
1	66275451	6412	19451
1	66285875	6413	19557
1	66296419	6414	19928
1	66306729	6415	19610
1	66317178	6416	19875
1	66327679	6417	19928
1	66338080	6418	19610
1	66348377	6419	19663
1	66358914	6420	19504
1	66369205	6421	19504
1	66379701	6422	19822
1	66390075	6423	19398
1	66400342	6424	19292
1	66410699	6425	19716
1	66421129	6426	19504
1	66431450	6427	19504
1	66441953	6428	19822
1	66452202	6429	19186
1	66462654	6430	19769
1	66472993	6431	19451
1	66483264	6432	19398
1	66493728	6433	19875
1	66503996	6434	19451
1	66514467	6435	19875
1	66524824	6436	19716
1	66535071	6437	19186
1	66545489	6438	19822
1	66555882	6439	19398
1	66566075	6440	19239
1	66576440	6441	19663
1	66586750	6442	19451
1	66597205	6443	19822
1	66607467	6444	18921
1	66618003	6445	20246
1	66628374	6446	19451
1	66638811	6447	19769
1	66649048	6448	19398
1	66659429	6449	19716
1	66670046	6450	19875
1	66680336	6451	19345
1	66690815	6452	19769
1	66701132	6453	19504
1	66711522	6454	19769
1	66721975	6455	19663
1	66732382	6456	19663
1	66742771	6457	19663
1	66753263	6458	19875
1	66763538	6459	19557
1	66773654	6460	18921
1	66784130	6461	19875
1	66794570	6462	19769
1	66804921	6463	19345
1	66815220	6464	19345
1	66825725	6465	20034
1	66836056	6466	19663
1	66846416	6467	19451
1	66856606	6468	19186
1	66867124	6469	20034
1	66877529	6470	19663
1	66887715	6471	19292
1	66898158	6472	19822
1	66908437	6473	19504
1	66918910	6474	19822
1	66929169	6475	19451
1	66939516	6476	19557
1	66949769	6477	19080
1	66960289	6478	20193
1	66970614	6479	19663
1	66980819	6480	19239
1	66991235	6481	19822
1	67001672	6482	19875
1	67011997	6483	19557
1	67022336	6484	19398
1	67032739	6485	19610
1	67043026	6486	19398
1	67053358	6487	19769
1	67063618	6488	19504
1	67073926	6489	19504
1	67084337	6490	19663
1	67094585	6491	19345
1	67104919	6492	19504
1	67115278	6493	19769
1	67125619	6494	19292
1	67136017	6495	19610
1	67146344	6496	19451
1	67156616	6497	19504
1	67167138	6498	19875
1	67177483	6499	19451
1	67187997	6500	19769
1	67198415	6501	19769
1	67208536	6502	19239
1	67218931	6503	19504
1	67229423	6504	19928
1	67239731	6505	19133
1	67249970	6506	19557
1	67260210	6507	19186
1	67270710	6508	19981
1	67281000	6509	19451
1	67291425	6510	19981
1	67301781	6511	19398
1	67312144	6512	19663
1	67322446	6513	19504
1	67333169	6514	20299
1	67343421	6515	19186
1	67353681	6516	19292
1	67363839	6517	19133
1	67374173	6518	19875
1	67384501	6519	19451
1	67394771	6520	19504
1	67405173	6521	20087
1	67415548	6522	19451
1	67425922	6523	19557
1	67436338	6524	19928
1	67446462	6525	19080
1	67456729	6526	19451
1	67467185	6527	19928
1	67477384	6528	19292
1	67487702	6529	19292
1	67497920	6530	19504
1	67508372	6531	19875
1	67518617	6532	19451
1	67529052	6533	20034
1	67539533	6534	19981
1	67549968	6535	19981
1	67560208	6536	19239
1	67570712	6537	20299
1	67580766	6538	18709
1	67591366	6539	20087
1	67601687	6540	19610
1	67612233	6541	19981
1	67622465	6542	19239
1	67632926	6543	19769
1	67643253	6544	19557
1	67653604	6545	19663
1	67664044	6546	19928
1	67674385	6547	19769
1	67684907	6548	20087
1	67695364	6549	19769
1	67705920	6550	19928
1	67716153	6551	19345
1	67726546	6552	19663
1	67736702	6553	19398
1	67747031	6554	19716
1	67757393	6555	19769
1	67767546	6556	19186
1	67777692	6557	19186
1	67788096	6558	19875
1	67798390	6559	19822
1	67808587	6560	19027
1	67818809	6561	19610
1	67829036	6562	19663
1	67839413	6563	19610
1	67849598	6564	19451
1	67859784	6565	19451
1	67870105	6566	19663
1	67880352	6567	19504
1	67890347	6568	18921
1	67900362	6569	19080
1	67910668	6570	19663
1	67920900	6571	19557
1	67931204	6572	19398
1	67941387	6573	19239
1	67951546	6574	19292
1	67961668	6575	19027
1	67972046	6576	20193
1	67982166	6577	19186
1	67992363	6578	19239
1	68002319	6579	18868
1	68012814	6580	20034
1	68023201	6581	19822
1	68033388	6582	19239
1	68043821	6583	19504
1	68054298	6584	20034
1	68064513	6585	19504
1	68074602	6586	19133
1	68084932	6587	19663
1	68095306	6588	19769
1	68105676	6589	19822
1	68116085	6590	19981
1	68126207	6591	19080
1	68136626	6592	20087
1	68146924	6593	19504
1	68157078	6594	19080
1	68167400	6595	19822
1	68177654	6596	19504
1	68187930	6597	19345
1	68198183	6598	19504
1	68208304	6599	19504
1	68218631	6600	19610
1	68228945	6601	19875
1	68239300	6602	19663
1	68249626	6603	19610
1	68259961	6604	19557
1	68270006	6605	19292
1	68280124	6606	19186
1	68290395	6607	19504
1	68300640	6608	19663
1	68310873	6609	19451
1	68321092	6610	19345
1	68331115	6611	18815
1	68341320	6612	19504
1	68351848	6613	19981
1	68362090	6614	19398
1	68372590	6615	19875
1	68382776	6616	19504
1	68393019	6617	19716
1	68403274	6618	19398
1	68413737	6619	19769
1	68424032	6620	19716
1	68434428	6621	19716
1	68444754	6622	19610
1	68455179	6623	19928
1	68465337	6624	19398
1	68475663	6625	19663
1	68485863	6626	19451
1	68496227	6627	19769
1	68506514	6628	19610
1	68516662	6629	19398
1	68527070	6630	19928
1	68537368	6631	19716
1	68547721	6632	19557
1	68557955	6633	19504
1	68568326	6634	19769
1	68578733	6635	19875
1	68589209	6636	20087
1	68599686	6637	19981
1	68610054	6638	19769
1	68620322	6639	19504
1	68630948	6640	20617
1	68641285	6641	19557
1	68651894	6642	20299
1	68662319	6643	19769
1	68672847	6644	19928
1	68683146	6645	19663
1	68693492	6646	19769
1	68703922	6647	19928
1	68714218	6648	19557
1	68724487	6649	19451
1	68735032	6650	19981
1	68745658	6651	20352
1	68756020	6652	19769
1	68766484	6653	19981
1	68777049	6654	20140
1	68787496	6655	19822
1	68798206	6656	20299
1	68808708	6657	20034
1	68819196	6658	19875
1	68829668	6659	19928
1	68840075	6660	19928
1	68850458	6661	19610
1	68860985	6662	20140
1	68871342	6663	19504
1	68882030	6664	20458
1	68892465	6665	19875
1	68902865	6666	19716
1	68913360	6667	19928
1	68923896	6668	19981
1	68934422	6669	20140
1	68944962	6670	20193
1	68955442	6671	19875
1	68965936	6672	19928
1	68976379	6673	19716
1	68987043	6674	20140
1	68997446	6675	19928
1	69007792	6676	19610
1	69018121	6677	19928
1	69028659	6678	19875
1	69039065	6679	19769
1	69049298	6680	19292
1	69059695	6681	19822
1	69070033	6682	20034
1	69080430	6683	19610
1	69090881	6684	19928
1	69101105	6685	19186
1	69111523	6686	19928
1	69122030	6687	19981
1	69132335	6688	19557
1	69142732	6689	19716
1	69153260	6690	19928
1	69163519	6691	19557
1	69173745	6692	19504
1	69184078	6693	19769
1	69194507	6694	19981
1	69204795	6695	19451
1	69214955	6696	19504
1	69225427	6697	19822
1	69235449	6698	19292
1	69245891	6699	20087
1	69256213	6700	19398
1	69266820	6701	20087
1	69277053	6702	19610
1	69287283	6703	19292
1	69297763	6704	20140
1	69307925	6705	19345
1	69318359	6706	19875
1	69328559	6707	19345
1	69338831	6708	19451
1	69349189	6709	19981
1	69359676	6710	19769
1	69369923	6711	19504
1	69380231	6712	19610
1	69390524	6713	19716
1	69401039	6714	19981
1	69411443	6715	19875
1	69421785	6716	19663
1	69432059	6717	19398
1	69442391	6718	19769
1	69452687	6719	19239
1	69462812	6720	19504
1	69473180	6721	19875
1	69483648	6722	19822
1	69493972	6723	19557
1	69504066	6724	19133
1	69514427	6725	19663
1	69525025	6726	20193
1	69535492	6727	20034
1	69546048	6728	20193
1	69556448	6729	19663
1	69566877	6730	19716
1	69577279	6731	19928
1	69587661	6732	19557
1	69598093	6733	19769
1	69608455	6734	19928
1	69618889	6735	20034
1	69629126	6736	19186
1	69639620	6737	20140
1	69649931	6738	19345
1	69660454	6739	20034
1	69670686	6740	19345
1	69681029	6741	19504
1	69691279	6742	19557
1	69701680	6743	19928
1	69712040	6744	19504
1	69722624	6745	20193
1	69732796	6746	19186
1	69743300	6747	20087
1	69753904	6748	20193
1	69764584	6749	20246
1	69775080	6750	19981
1	69785450	6751	19716
1	69796017	6752	20140
1	69806716	6753	20458
1	69817177	6754	19981
1	69827584	6755	19663
1	69838234	6756	20352
1	69848823	6757	20193
1	69859534	6758	20511
1	69870116	6759	20034
1	69880793	6760	20140
1	69891274	6761	19822
1	69901809	6762	20246
1	69912529	6763	20034
1	69923178	6764	20087
1	69933953	6765	20352
1	69944642	6766	20458
1	69954990	6767	19504
1	69965603	6768	20193
1	69976206	6769	20193
1	69987058	6770	20352
1	69997591	6771	19981
1	70008062	6772	19822
1	70018869	6773	20670
1	70029334	6774	19716
1	70039824	6775	19875
1	70050591	6776	20352
1	70060832	6777	19769
1	70071402	6778	19928
1	70082078	6779	20352
1	70092573	6780	19822
1	70103137	6781	20299
1	70113359	6782	19345
1	70123969	6783	20458
1	70134211	6784	19292
1	70144506	6785	19557
1	70154734	6786	19398
1	70165264	6787	19928
1	70175606	6788	19716
1	70186113	6789	19822
1	70196904	6790	20246
1	70207497	6791	20140
1	70217937	6792	19928
1	70228560	6793	20246
1	70239300	6794	20405
1	70249704	6795	19769
1	70260143	6796	19928
1	70270743	6797	20299
1	70281371	6798	20193
1	70291953	6799	19981
1	70302427	6800	20034
1	70313131	6801	20299
1	70323582	6802	19875
1	70334335	6803	20458
1	70344998	6804	20458
1	70355674	6805	20299
1	70366018	6806	19822
1	70376700	6807	20299
1	70387082	6808	19928
1	70397537	6809	19822
1	70408246	6810	20352
1	70418992	6811	20776
1	70429434	6812	19610
1	70439850	6813	19875
1	70450236	6814	19928
1	70460748	6815	19822
1	70471123	6816	19875
1	70481969	6817	20670
1	70492670	6818	20405
1	70503131	6819	19875
1	70513708	6820	19928
1	70524056	6821	19875
1	70534415	6822	19716
1	70544682	6823	19504
1	70555248	6824	20246
1	70565839	6825	20193
1	70576467	6826	19981
1	70586911	6827	19981
1	70597361	6828	19928
1	70608147	6829	20405
1	70618692	6830	19822
1	70629336	6831	20193
1	70639902	6832	20034
1	70650313	6833	19716
1	70660963	6834	20405
1	70671462	6835	20299
1	70682080	6836	19928
1	70692795	6837	20511
1	70703204	6838	19928
1	70713622	6839	19504
1	70724082	6840	19451
1	70734683	6841	20246
1	70745033	6842	19716
1	70755604	6843	20246
1	70766201	6844	19716
1	70776899	6845	20405
1	70787600	6846	20246
1	70797940	6847	19610
1	70808632	6848	20140
1	70819020	6849	19716
1	70829674	6850	20352
1	70840169	6851	19981
1	70850683	6852	19981
1	70861152	6853	19769
1	70871680	6854	19928
1	70882262	6855	20299
1	70892912	6856	20140
1	70903373	6857	19769
1	70913919	6858	20140
1	70924588	6859	20246
1	70935133	6860	19663
1	70945582	6861	19875
1	70956158	6862	20405
1	70966528	6863	19345
1	70977126	6864	20193
1	70987598	6865	19716
1	70998155	6866	20140
1	71008577	6867	19981
1	71019048	6868	19769
1	71029283	6869	19292
1	71039881	6870	20246
1	71050384	6871	19875
1	71060932	6872	19663
1	71071246	6873	19451
1	71081756	6874	20246
1	71092201	6875	19716
1	71102632	6876	19822
1	71113019	6877	19557
1	71123552	6878	20034
1	71133888	6879	19610
1	71144510	6880	20246
1	71154952	6881	19769
1	71165287	6882	19557
1	71175607	6883	19557
1	71186215	6884	20246
1	71196547	6885	19398
1	71206798	6886	19610
1	71217320	6887	19822
1	71227865	6888	19875
1	71238134	6889	19345
1	71248955	6890	20564
1	71259368	6891	19663
1	71269739	6892	19769
1	71280037	6893	19451
1	71290584	6894	20034
1	71301094	6895	19875
1	71311710	6896	19928
1	71322073	6897	19504
1	71332557	6898	19875
1	71342998	6899	19822
1	71353512	6900	19716
1	71364144	6901	20246
1	71374659	6902	19822
1	71385215	6903	20140
1	71395656	6904	19610
1	71406280	6905	20087
1	71416765	6906	19663
1	71427167	6907	19769
1	71437564	6908	19663
1	71448108	6909	19981
1	71458730	6910	20140
1	71469187	6911	19822
1	71479755	6912	19822
1	71490339	6913	19875
1	71500986	6914	20087
1	71511716	6915	20246
1	71522188	6916	19610
1	71532774	6917	19875
1	71543234	6918	19769
1	71553646	6919	19716
1	71564157	6920	19769
1	71574725	6921	20087
1	71585184	6922	19557
1	71595626	6923	19716
1	71606215	6924	19928
1	71616829	6925	19769
1	71627374	6926	20246
1	71637953	6927	19822
1	71648615	6928	20246
1	71659325	6929	20193
1	71669829	6930	19822
1	71680327	6931	19981
1	71690786	6932	19610
1	71701194	6933	19716
1	71711767	6934	19981
1	71722106	6935	19292
1	71732528	6936	19822
1	71743153	6937	20034
1	71753586	6938	19504
1	71764211	6939	20140
1	71774681	6940	19504
1	71784973	6941	19186
1	71795326	6942	19398
1	71805896	6943	19928
1	71816512	6944	19822
1	71826896	6945	19451
1	71837466	6946	19928
1	71848107	6947	20087
1	71858707	6948	19822
1	71869152	6949	19292
1	71879829	6950	20246
1	71890434	6951	19928
1	71901099	6952	19716
1	71911545	6953	19716
1	71921995	6954	19663
1	71932796	6955	20511
1	71943311	6956	19610
1	71953823	6957	19928
1	71964581	6958	20193
1	71974894	6959	19345
1	71985371	6960	19663
1	71995769	6961	19822
1	72006374	6962	20034
1	72016686	6963	19398
1	72027161	6964	19769
1	72037693	6965	19875
1	72048234	6966	19557
1	72058621	6967	19716
1	72069024	6968	19610
1	72079689	6969	20193
1	72090228	6970	19981
1	72100551	6971	19557
1	72111133	6972	20352
1	72121625	6973	19716
1	72132118	6974	19610
1	72142717	6975	20034
1	72153213	6976	19822
1	72163883	6977	20140
1	72174311	6978	19875
1	72184731	6979	19875
1	72195458	6980	20405
1	72206142	6981	20299
1	72216705	6982	19875
1	72227231	6983	19981
1	72237728	6984	19769
1	72248271	6985	20087
1	72258672	6986	19557
1	72269292	6987	19928
1	72279751	6988	19610
1	72290022	6989	19398
1	72300371	6990	19610
1	72310931	6991	19875
1	72321376	6992	19769
1	72331970	6993	19928
1	72342524	6994	19875
1	72353184	6995	20087
1	72363588	6996	19716
1	72374037	6997	19875
1	72384577	6998	19981
1	72395111	6999	19981
1	72405777	7000	20087
1	72416131	7001	19557
1	72426828	7002	20140
1	72437315	7003	19769
1	72447971	7004	20140
1	72458448	7005	19822
1	72469037	7006	19875
1	72479525	7007	19769
1	72490273	7008	20405
1	72500755	7009	19981
1	72511223	7010	19875
1	72521927	7011	20458
1	72532706	7012	20246
1	72542999	7013	19451
1	72553601	7014	20299
1	72564157	7015	19928
1	72574611	7016	19875
1	72585026	7017	19716
1	72595448	7018	19875
1	72605964	7019	19875
1	72616471	7020	19769
1	72626932	7021	19822
1	72637418	7022	20140
1	72647920	7023	19928
1	72658381	7024	19769
1	72668951	7025	20087
1	72679441	7026	19769
1	72689956	7027	19981
1	72700572	7028	20299
1	72711347	7029	20140
1	72721758	7030	19769
1	72732084	7031	19504
1	72742409	7032	19292
1	72752863	7033	20034
1	72763471	7034	20034
1	72773983	7035	19822
1	72784360	7036	19663
1	72794896	7037	19981
1	72805477	7038	20034
1	72815985	7039	19769
1	72826524	7040	19981
1	72837239	7041	19981
1	72847613	7042	19610
1	72858006	7043	19822
1	72868662	7044	20034
1	72879117	7045	19822
1	72889780	7046	20193
1	72900134	7047	19663
1	72910532	7048	19451
1	72921006	7049	19769
1	72931562	7050	19769
1	72942064	7051	20034
1	72952579	7052	20034
1	72962849	7053	19398
1	72973208	7054	19398
1	72983776	7055	20034
1	72994215	7056	19663
1	73004490	7057	19610
1	73015104	7058	19981
1	73025733	7059	20034
1	73036080	7060	19663
1	73046702	7061	19928
1	73056914	7062	19186
1	73067423	7063	19822
1	73077721	7064	19557
1	73088045	7065	19186
1	73098501	7066	20034
1	73108941	7067	19769
1	73119727	7068	20193
1	73130315	7069	20299
1	73141158	7070	20458
1	73151657	7071	19451
1	73162089	7072	19451
1	73172726	7073	20246
1	73183294	7074	20193
1	73193763	7075	19557
1	73204349	7076	20034
1	73214827	7077	19928
1	73225211	7078	19610
1	73235775	7079	19557
1	73246290	7080	20087
1	73256769	7081	19663
1	73267297	7082	20246
1	73277988	7083	19928
1	73288462	7084	19769
1	73299044	7085	20140
1	73309640	7086	20246
1	73319980	7087	19186
1	73330235	7088	19716
1	73340631	7089	19769
1	73351170	7090	19822
1	73361832	7091	19981
1	73372004	7092	19345
1	73382587	7093	20087
1	73393090	7094	19716
1	73403624	7095	20193
1	73414126	7096	19769
1	73424728	7097	20193
1	73435273	7098	20352
1	73445702	7099	19239
1	73456053	7100	19663
1	73466697	7101	20564
1	73477154	7102	19451
1	73487519	7103	19504
1	73497838	7104	19557
1	73508206	7105	19716
1	73518811	7106	20087
1	73529609	7107	20405
1	73540033	7108	19610
1	73550816	7109	20352
1	73561460	7110	20087
1	73571781	7111	19557
1	73582289	7112	20034
1	73592576	7113	19398
1	73603063	7114	19928
1	73613715	7115	20034
1	73623898	7116	19239
1	73634214	7117	19345
1	73644591	7118	19610
1	73654956	7119	19716
1	73665603	7120	20087
1	73676157	7121	20087
1	73686621	7122	19875
1	73696971	7123	19557
1	73707454	7124	19822
1	73717785	7125	19610
1	73728155	7126	19875
1	73738890	7127	20352
1	73749352	7128	19928
1	73759777	7129	19875
1	73770488	7130	20352
1	73780897	7131	19875
1	73791008	7132	19186
1	73801731	7133	20193
1	73812130	7134	19663
1	73822515	7135	19716
1	73832975	7136	19716
1	73843430	7137	19610
1	73853948	7138	19822
1	73864419	7139	19769
1	73874913	7140	19981
1	73885457	7141	20034
1	73896042	7142	20034
1	73906472	7143	19716
1	73916949	7144	19981
1	73927419	7145	19822
1	73937969	7146	19981
1	73948365	7147	19822
1	73958791	7148	19663
1	73969173	7149	20034
1	73979911	7150	20087
1	73990409	7151	20193
1	74000962	7152	19981
1	74011557	7153	20246
1	74021703	7154	19186
1	74032418	7155	20299
1	74042697	7156	19398
1	74053399	7157	20617
1	74063778	7158	19345
1	74074068	7159	19557
1	74084286	7160	19239
1	74094724	7161	19928
1	74104977	7162	19186
1	74115331	7163	19398
1	74125740	7164	19610
1	74136279	7165	20140
1	74146871	7166	19822
1	74157298	7167	19557
1	74167400	7168	18974
1	74177809	7169	19875
1	74188234	7170	19769
1	74198618	7171	19610
1	74209196	7172	20352
1	74219710	7173	19822
1	74229934	7174	19239
1	74240295	7175	19292
1	74250874	7176	19875
1	74261153	7177	19610
1	74271582	7178	19769
1	74281846	7179	19345
1	74292188	7180	19292
1	74302523	7181	19504
1	74312959	7182	19716
1	74323318	7183	19663
1	74333708	7184	19716
1	74344204	7185	19928
1	74354665	7186	19663
1	74365322	7187	20299
1	74375371	7188	18974
1	74386017	7189	19981
1	74396438	7190	19822
1	74407070	7191	20193
1	74417721	7192	20034