version 2
run QLearnCC-1-20100909-16:17:43-4680
attr configname QLearnCC
attr datetime 20100909-16:17:43
attr experiment QLearnCC
attr inifile D:/Developement/Oversim2/multic/simulations/omnetpp.ini
attr iterationvars $rateIncoming=300000
attr iterationvars2 "$rateIncoming=300000, $repetition=0"
attr measurement $rateIncoming=300000
attr network oversim.underlay.simpleunderlay.SimpleUnderlayNetwork
attr processid 4680
attr rateIncoming 300000
attr repetition 0
attr replication #0
attr resultdir results
attr runnumber 1
attr seedset 1

vector 1  SimpleUnderlayNetwork.globalObserver.globalStatistics  incoming_bytes  ETV
vector 2  SimpleUnderlayNetwork.globalObserver.globalStatistics  drops  ETV
vector 3  SimpleUnderlayNetwork.globalObserver.globalStatistics  delayed_acks  ETV
vector 4  SimpleUnderlayNetwork.globalObserver.globalStatistics  timetotimeouts  ETV
vector 5  SimpleUnderlayNetwork.globalObserver.globalStatistics  9rateOf1To0  ETV
vector 6  SimpleUnderlayNetwork.globalObserver.globalStatistics  max9RateOf1To0  ETV
vector 7  SimpleUnderlayNetwork.globalObserver.globalStatistics  9rateOf1To1  ETV
vector 8  SimpleUnderlayNetwork.globalObserver.globalStatistics  max9RateOf1To1  ETV
vector 9  SimpleUnderlayNetwork.globalObserver.globalStatistics  9rateOf1To2  ETV
vector 10  SimpleUnderlayNetwork.globalObserver.globalStatistics  max9RateOf1To2  ETV
vector 11  SimpleUnderlayNetwork.globalObserver.globalStatistics  9rateOf1To3  ETV
vector 12  SimpleUnderlayNetwork.globalObserver.globalStatistics  max9RateOf1To3  ETV
vector 13  SimpleUnderlayNetwork.globalObserver.globalStatistics  9rateOf1To4  ETV
vector 14  SimpleUnderlayNetwork.globalObserver.globalStatistics  max9RateOf1To4  ETV
vector 15  SimpleUnderlayNetwork.globalObserver.globalStatistics  9rateOf1To5  ETV
vector 16  SimpleUnderlayNetwork.globalObserver.globalStatistics  max9RateOf1To5  ETV
vector 17  SimpleUnderlayNetwork.globalObserver.globalStatistics  9rateOf1To6  ETV
vector 18  SimpleUnderlayNetwork.globalObserver.globalStatistics  max9RateOf1To6  ETV
vector 19  SimpleUnderlayNetwork.globalObserver.globalStatistics  9rateOf1To7  ETV
vector 20  SimpleUnderlayNetwork.globalObserver.globalStatistics  max9RateOf1To7  ETV
vector 21  SimpleUnderlayNetwork.globalObserver.globalStatistics  9rateOf1To8  ETV
vector 22  SimpleUnderlayNetwork.globalObserver.globalStatistics  max9RateOf1To8  ETV
vector 23  SimpleUnderlayNetwork.globalObserver.globalStatistics  9rateOf1To9  ETV
vector 24  SimpleUnderlayNetwork.globalObserver.globalStatistics  max9RateOf1To9  ETV
vector 25  SimpleUnderlayNetwork.globalObserver.globalStatistics  1rate  ETV
vector 26  SimpleUnderlayNetwork.globalObserver.globalStatistics  max2Rate  ETV
vector 27  SimpleUnderlayNetwork.globalObserver.globalStatistics  "GlobalNodeList: Number of nodes"  ETV
vector 28  SimpleUnderlayNetwork.globalObserver.globalStatistics  "GlobalNodeList: Number of bootstrapped malicious nodes"  ETV
1	175072007	6017	59837
1	175102869	6018	59784
1	175133736	6019	59731
1	175164547	6020	59095
1	175195799	6021	60950
1	175226445	6022	59201
1	175257570	6023	60102
1	175288091	6024	58512
1	175318873	6025	59360
1	175349945	6026	60579
1	175380563	6027	58194
1	175411765	6028	60950
1	175442302	6029	58777
1	175473149	6030	58724
1	175504017	6031	59837
1	175534877	6032	59943
1	175565705	6033	60526
1	175596675	6034	59519
1	175627246	6035	58989
1	175657912	6036	58936
1	175688804	6037	59307
1	175719220	6038	59042
1	175750110	6039	59784
1	175780914	6040	58883
1	175811749	6041	60367
1	175842438	6042	58459
1	175873385	6043	60155
1	175904171	6044	59519
1	175934904	6045	59413
1	175965420	6046	59307
1	175996071	6047	58724
1	176027263	6048	60950
1	176057996	6049	59148
1	176088706	6050	59519
1	176119281	6051	59625
1	176150243	6052	59307
1	176181210	6053	59095
1	176211695	6054	58989
1	176242413	6055	59254
1	176273480	6056	60579
1	176303950	6057	59095
1	176334626	6058	58459
1	176365159	6059	59625
1	176395695	6060	58724
1	176426166	6061	59042
1	176456665	6062	58406
1	176487608	6063	60367
1	176518572	6064	59996
1	176549172	6065	59943
1	176579212	6066	57134
1	176610029	6067	59307
1	176640452	6068	59360
1	176670991	6069	59254
1	176701825	6070	59996
1	176732252	6071	58406
1	176763200	6072	61056
1	176794095	6073	59413
1	176824862	6074	58936
1	176855158	6075	58141
1	176885774	6076	59254
1	176916677	6077	60632
1	176947535	6078	59572
1	176978237	6079	59519
1	177008847	6080	58724
1	177039569	6081	59201
1	177069822	6082	58883
1	177101149	6083	61533
1	177132025	6084	58724
1	177162640	6085	59519
1	177193782	6086	61268
1	177224491	6087	58565
1	177255037	6088	59201
1	177285518	6089	58883
1	177316339	6090	60367
1	177346770	6091	57187
1	177377875	6092	61533
1	177408284	6093	57876
1	177439333	6094	61215
1	177469795	6095	58353
1	177500244	6096	59254
1	177531093	6097	59148
1	177561668	6098	59254
1	177592213	6099	58989
1	177622807	6100	59148
1	177653981	6101	60791
1	177684829	6102	58989
1	177715604	6103	59466
1	177746662	6104	60950
1	177776973	6105	58247
1	177807798	6106	59890
1	177838668	6107	59731
1	177869291	6108	59095
1	177900336	6109	60632
1	177931226	6110	59731
1	177961805	6111	57876
1	177992677	6112	60208
1	178023360	6113	59307
1	178054064	6114	59148
1	178084977	6115	60420
1	178115718	6116	58830
1	178146529	6117	59837
1	178177184	6118	58830
1	178208177	6119	60420
1	178239366	6120	60420
1	178270061	6121	58936
1	178300668	6122	59519
1	178331474	6123	59837
1	178362200	6124	58830
1	178393038	6125	60314
1	178423518	6126	58883
1	178454342	6127	58777
1	178485254	6128	59996
1	178515722	6129	58618
1	178546386	6130	60420
1	178576904	6131	57770
1	178607630	6132	59095
1	178638113	6133	59625
1	178668818	6134	59731
1	178699454	6135	59519
1	178729933	6136	58353
1	178760534	6137	58671
1	178791506	6138	61056
1	178822090	6139	59360
1	178852949	6140	59307
1	178883679	6141	59625
1	178914140	6142	59731
1	178945156	6143	59572
1	178975837	6144	59095
1	179006826	6145	60367
1	179037765	6146	59837
1	179068327	6147	59731
1	179099132	6148	59148
1	179129886	6149	59095
1	179160828	6150	60261
1	179191259	6151	58777
1	179222281	6152	60049
1	179253195	6153	60155
1	179283860	6154	59360
1	179314672	6155	59625
1	179345090	6156	59148
1	179375638	6157	58300
1	179406306	6158	59890
1	179436968	6159	60261
1	179467423	6160	57982
1	179498254	6161	60102
1	179528750	6162	58512
1	179559206	6163	57982
1	179590244	6164	61003
1	179620869	6165	58989
1	179651705	6166	59413
1	179682521	6167	60155
1	179712516	6168	57346
1	179743400	6169	60049
1	179773874	6170	58936
1	179804462	6171	59943
1	179835167	6172	58618
1	179866023	6173	60473
1	179896701	6174	59307
1	179927018	6175	58088
1	179958011	6176	61056
1	179988732	6177	58724
1	180019348	6178	59095
1	180050144	6179	59890
1	180080948	6180	59678
1	180111538	6181	58512
1	180142251	6182	59307
1	180173376	6183	60473
1	180204091	6184	59519
1	180234905	6185	59678
1	180265891	6186	60738
1	180296580	6187	59625
1	180327509	6188	59466
1	180358106	6189	58989
1	180389075	6190	59360
1	180419766	6191	59837
1	180450766	6192	59625
1	180481945	6193	60897
1	180512733	6194	58883
1	180543585	6195	59678
1	180574554	6196	60420
1	180605381	6197	59837
1	180636095	6198	58936
1	180667208	6199	59996
1	180698054	6200	59678
1	180728993	6201	60102
1	180759912	6202	60102
1	180790742	6203	59201
1	180821531	6204	59625
1	180852451	6205	59678
1	180883503	6206	60420
1	180914054	6207	59201
1	180945190	6208	60155
1	180975892	6209	59360
1	181006729	6210	59784
1	181037577	6211	59201
1	181068511	6212	60685
1	181099282	6213	59095
1	181130118	6214	59731
1	181160667	6215	58618
1	181191679	6216	60579
1	181222439	6217	59784
1	181253772	6218	60367
1	181284013	6219	57982
1	181314702	6220	60102
1	181345419	6221	58565
1	181376473	6222	59996
1	181407313	6223	59519
1	181438246	6224	60844
1	181469006	6225	59413
1	181500027	6226	59996
1	181530574	6227	59254
1	181561599	6228	60049
1	181592744	6229	60526
1	181622919	6230	57770
1	181653791	6231	59519
1	181684635	6232	60526
1	181715576	6233	59519
1	181746219	6234	59148
1	181777311	6235	60473
1	181808221	6236	59731
1	181839049	6237	58830
1	181870309	6238	61480
1	181900831	6239	59254
1	181931876	6240	59943
1	181962715	6241	59254
1	181993317	6242	59360
1	182024620	6243	60632
1	182055176	6244	58936
1	182085972	6245	59466
1	182116880	6246	60208
1	182147940	6247	59837
1	182178519	6248	58989
1	182209507	6249	60685
1	182240270	6250	59042
1	182271121	6251	59837
1	182302023	6252	58883
1	182333021	6253	59943
1	182363879	6254	59625
1	182394917	6255	61162
1	182425583	6256	59307
1	182456758	6257	60579
1	182487234	6258	57558
1	182518318	6259	60632
1	182548829	6260	58883
1	182579850	6261	60155
1	182610547	6262	59890
1	182641445	6263	58618
1	182672495	6264	60632
1	182703067	6265	58353
1	182734140	6266	60632
1	182765011	6267	59254
1	182796004	6268	61162
1	182827142	6269	59996
1	182857519	6270	57452
1	182888619	6271	60844
1	182919817	6272	60049
1	182951251	6273	61692
1	182981804	6274	58989
1	183013077	6275	60155
1	183043560	6276	58989
1	183074677	6277	59996
1	183105678	6278	61109
1	183136344	6279	58830
1	183166945	6280	58300
1	183197705	6281	59466
1	183228598	6282	59837
1	183259404	6283	60102
1	183290135	6284	59519
1	183321054	6285	59625
1	183351981	6286	59201
1	183382733	6287	59890
1	183413744	6288	60526
1	183444568	6289	59625
1	183475597	6290	60049
1	183506646	6291	59837
1	183537591	6292	60208
1	183568443	6293	60102
1	183599273	6294	59307
1	183630159	6295	59360
1	183661146	6296	60155
1	183692311	6297	60844
1	183723174	6298	59572
1	183753966	6299	59943
1	183784814	6300	58936
1	183816116	6301	60844
1	183847090	6302	60155
1	183877921	6303	58618
1	183909004	6304	61056
1	183940028	6305	60420
1	183971168	6306	59784
1	184002108	6307	60314
1	184032613	6308	58512
1	184063454	6309	60208
1	184094406	6310	59201
1	184125443	6311	60314
1	184156404	6312	59572
1	184187185	6313	59996
1	184218784	6314	61533
1	184249730	6315	59943
1	184280865	6316	60261
1	184311976	6317	60314
1	184342612	6318	58618
1	184373479	6319	59996
1	184404813	6320	61056
1	184435816	6321	59996
1	184467081	6322	60102
1	184497811	6323	59307
1	184528988	6324	60367
1	184560140	6325	60632
1	184590728	6326	58671
1	184621683	6327	60473
1	184652588	6328	58618
1	184683292	6329	59943
1	184714013	6330	59254
1	184744962	6331	59943
1	184775740	6332	59784
1	184806245	6333	58565
1	184837272	6334	60526
1	184868296	6335	59890
1	184899439	6336	60102
1	184930203	6337	59254
1	184961203	6338	60738
1	184991871	6339	59042
1	185022801	6340	59572
1	185053555	6341	59360
1	185084380	6342	60102
1	185115216	6343	60208
1	185146244	6344	59148
1	185177246	6345	59784
1	185208179	6346	59996
1	185239187	6347	59360
1	185270459	6348	61480
1	185301308	6349	59625
1	185332000	6350	59360
1	185362853	6351	59625
1	185393966	6352	60261
1	185425286	6353	61480
1	185455734	6354	57664
1	185486371	6355	59042
1	185517473	6356	61162
1	185548449	6357	60155
1	185579123	6358	58671
1	185610124	6359	60314
1	185641322	6360	60685
1	185672040	6361	59042
1	185703159	6362	60102
1	185733965	6363	59943
1	185764621	6364	59731
1	185795641	6365	59254
1	185826578	6366	60685
1	185857704	6367	59466
1	185889125	6368	61586
1	185919610	6369	59731
1	185950436	6370	58406
1	185981248	6371	59254
1	186012373	6372	61003
1	186043318	6373	60208
1	186074382	6374	59996
1	186105015	6375	58989
1	186136087	6376	59784
1	186167074	6377	59996
1	186197988	6378	59784
1	186229267	6379	61480
1	186260249	6380	59413
1	186291180	6381	60155
1	186322282	6382	60208
1	186353431	6383	59678
1	186384186	6384	59625
1	186414689	6385	58565
1	186445656	6386	60791
1	186476678	6387	59784
1	186507382	6388	59519
1	186538173	6389	59254
1	186569247	6390	60473
1	186600357	6391	60473
1	186631778	6392	61480
1	186662555	6393	58777
1	186693423	6394	58936
1	186724524	6395	61374
1	186755274	6396	59254
1	186786344	6397	60473
1	186817263	6398	59943
1	186848288	6399	59413
1	186879194	6400	59890
1	186910111	6401	60261
1	186940851	6402	58989
1	186971814	6403	60049
1	187002989	6404	60632
1	187033900	6405	60261
1	187064380	6406	57770
1	187095345	6407	60844
1	187126460	6408	60155
1	187156995	6409	59731
1	187188031	6410	59148
1	187219256	6411	61003
1	187250452	6412	60791
1	187281130	6413	59095
1	187312110	6414	60314
1	187342980	6415	59625
1	187373585	6416	59042
1	187404473	6417	59201
1	187435467	6418	60632
1	187466736	6419	61162
1	187497910	6420	59519
1	187529054	6421	61268
1	187559843	6422	59254
1	187591167	6423	60632
1	187621667	6424	58353
1	187652754	6425	60420
1	187683486	6426	60208
1	187714511	6427	59360
1	187746016	6428	61321
1	187776885	6429	59678
1	187807736	6430	59148
1	187838836	6431	60261
1	187869932	6432	60473
1	187901202	6433	61215
1	187932381	6434	60049
1	187963525	6435	59095
1	187994497	6436	60897
1	188025766	6437	60632
1	188056810	6438	59996
1	188087997	6439	60367
1	188118531	6440	59148
1	188149736	6441	60208
1	188180864	6442	60155
1	188211554	6443	59890
1	188242468	6444	58883
1	188273456	6445	61321
1	188304076	6446	58406
1	188335268	6447	60526
1	188366665	6448	60473
1	188397203	6449	58883
1	188428435	6450	60579
1	188459310	6451	60049
1	188490398	6452	59890
1	188521505	6453	60579
1	188552213	6454	59413
1	188583274	6455	59572
1	188614470	6456	60420
1	188645227	6457	60049
1	188675963	6458	59413
1	188707091	6459	59572
1	188738170	6460	60738
1	188768976	6461	60632
1	188800201	6462	59466
1	188830838	6463	58989
1	188861657	6464	59625
1	188892694	6465	59784
1	188923863	6466	60632
1	188954595	6467	59095
1	188985949	6468	60844
1	189017157	6469	60049
1	189048137	6470	60526
1	189079577	6471	61427
1	189110824	6472	59678
1	189141913	6473	60102
1	189172964	6474	60049
1	189203954	6475	59678
1	189235086	6476	60208
1	189266049	6477	59572
1	189297354	6478	59996
1	189328350	6479	59943
1	189359670	6480	61639
1	189390490	6481	58353
1	189421782	6482	61215
1	189452760	6483	59731
1	189483772	6484	60579
1	189514576	6485	58777
1	189545496	6486	59572
1	189576551	6487	60208
1	189607180	6488	58565
1	189638318	6489	60844
1	189669323	6490	59943
1	189700462	6491	60102
1	189731775	6492	60844
1	189762564	6493	59148
1	189793754	6494	60632
1	189824765	6495	59943
1	189855347	6496	58141
1	189886608	6497	61215
1	189918003	6498	60261
1	189949126	6499	60738
1	189980640	6500	60049
1	190011295	6501	58936
1	190042648	6502	60420
1	190073931	6503	61109
1	190105169	6504	60261
1	190136253	6505	59625
1	190167353	6506	60897
1	190198683	6507	60526
1	190229955	6508	60367
1	190260871	6509	60367
1	190292332	6510	60208
1	190323523	6511	60738
1	190354789	6512	60367
1	190385707	6513	58989
1	190416953	6514	60791
1	190447800	6515	60738
1	190478695	6516	59095
1	190509526	6517	59360
1	190540432	6518	59095
1	190571551	6519	59837
1	190602824	6520	60738
1	190633594	6521	59413
1	190664375	6522	59572
1	190695214	6523	58989
1	190726276	6524	60049
1	190757288	6525	60049
1	190788352	6526	59731
1	190819700	6527	60897
1	190850649	6528	58830
1	190881705	6529	61268
1	190912674	6530	59625
1	190943755	6531	59943
1	190975037	6532	59943
1	191005879	6533	59996
1	191036606	6534	58724
1	191067478	6535	59943
1	191098751	6536	60155
1	191129723	6537	60473
1	191160400	6538	58406
1	191191444	6539	59943
1	191222918	6540	61851
1	191253567	6541	58406
1	191284750	6542	60420
1	191315389	6543	58459
1	191346793	6544	61692
1	191377988	6545	60844
1	191409326	6546	60314
1	191440295	6547	59413
1	191471190	6548	60261
1	191502322	6549	59466
1	191533306	6550	60420
1	191564169	6551	59148
1	191595225	6552	60155
1	191626356	6553	60314
1	191657162	6554	60420
1	191688057	6555	58989
1	191718724	6556	59148
1	191749465	6557	59254
1	191780928	6558	61109
1	191811256	6559	58671
1	191842369	6560	60685
1	191873459	6561	59360
1	191904325	6562	59413
1	191935298	6563	60579
1	191965850	6564	58989
1	191997057	6565	59519
1	192027994	6566	59678
1	192058923	6567	60102
1	192090122	6568	61003
1	192121407	6569	60261
1	192152639	6570	59890
1	192183871	6571	60897
1	192214661	6572	58724
1	192245934	6573	60685
1	192276768	6574	60367
1	192307711	6575	59837
1	192339127	6576	60155
1	192370508	6577	60897
1	192401743	6578	60844
1	192432630	6579	59519
1	192463542	6580	59360
1	192494534	6581	59943
1	192525724	6582	60261
1	192557183	6583	61957
1	192588258	6584	59307
1	192619565	6585	61533
1	192650732	6586	60261
1	192681633	6587	59784
1	192712537	6588	59360
1	192743941	6589	60420
1	192775218	6590	60950
1	192806520	6591	60261
1	192837703	6592	59784
1	192868771	6593	60314
1	192900303	6594	61427
1	192931876	6595	61003
1	192962768	6596	59519
1	192993859	6597	59731
1	193025225	6598	60791
1	193056078	6599	59784
1	193087160	6600	59943
1	193118282	6601	60791
1	193149350	6602	59731
1	193180470	6603	59996
1	193211572	6604	60579
1	193242201	6605	59095
1	193273061	6606	59466
1	193303853	6607	58777
1	193334820	6608	59837
1	193366329	6609	61692
1	193397560	6610	61003
1	193428134	6611	58936
1	193458917	6612	59095
1	193490573	6613	61215
1	193520949	6614	57982
1	193552086	6615	59837
1	193583158	6616	60526
1	193614557	6617	61268
1	193645463	6618	59996
1	193676562	6619	59519
1	193707612	6620	60844
1	193738784	6621	60208
1	193770024	6622	60314
1	193801357	6623	59890
1	193832620	6624	61056
1	193863988	6625	60367
1	193894988	6626	60049
1	193926065	6627	60049
1	193957297	6628	60208
1	193988485	6629	60950
1	194020034	6630	62010
1	194051268	6631	59890
1	194082307	6632	60208
1	194113586	6633	60102
1	194144855	6634	60897
1	194175982	6635	59413
1	194207171	6636	60791
1	194238325	6637	60155
1	194269558	6638	60420
1	194300585	6639	60526
1	194331718	6640	60420
1	194362854	6641	59678
1	194393903	6642	60420
1	194425017	6643	60155
1	194456055	6644	59996
1	194486738	6645	59784
1	194518110	6646	60049
1	194549402	6647	60208
1	194580904	6648	61162
1	194611790	6649	59731
1	194643061	6650	60261
1	194674140	6651	61109
1	194705368	6652	59784
1	194736204	6653	59466
1	194767359	6654	60102
1	194798655	6655	60632
1	194830023	6656	60897
1	194861042	6657	59254
1	194892325	6658	60632
1	194923375	6659	59996
1	194954107	6660	58936
1	194985333	6661	60844
1	195016469	6662	60208
1	195047442	6663	59307
1	195078406	6664	60314
1	195109436	6665	59996
1	195140583	6666	60208
1	195172116	6667	61056
1	195203172	6668	59890
1	195234196	6669	59678
1	195265685	6670	61321
1	195296770	6671	60102
1	195327853	6672	60155
1	195358990	6673	60473
1	195390319	6674	60473
1	195421298	6675	58777
1	195452649	6676	61692
1	195483962	6677	60102
1	195515074	6678	59413
1	195546261	6679	61109
1	195577599	6680	60526
1	195608826	6681	60526
1	195640018	6682	60632
1	195671220	6683	60314
1	195702266	6684	59837
1	195733534	6685	61268
1	195764855	6686	59784
1	195796016	6687	60155
1	195826952	6688	59519
1	195858258	6689	60420
1	195889237	6690	59731
1	195920594	6691	61162
1	195951876	6692	60897
1	195982889	6693	59784
1	196013375	6694	57876
1	196044639	6695	61480
1	196075749	6696	60049
1	196106714	6697	59890
1	196137853	6698	60049
1	196168792	6699	60314
1	196200394	6700	61215
1	196230968	6701	58777
1	196262203	6702	59943
1	196293412	6703	60738
1	196324546	6704	61374
1	196355505	6705	58724
1	196387201	6706	62063
1	196418356	6707	59466
1	196449154	6708	59837
1	196480501	6709	61268
1	196512044	6710	61109
1	196543136	6711	60102
1	196574184	6712	59784
1	196604994	6713	59201
1	196636439	6714	61374
1	196667571	6715	59837
1	196699022	6716	60208
1	196730136	6717	59890
1	196761317	6718	61321
1	196792613	6719	60208
1	196823595	6720	59254
1	196854923	6721	60897
1	196885874	6722	59731
1	196917099	6723	61162
1	196948571	6724	60632
1	196979651	6725	59943
1	197010959	6726	61162
1	197042350	6727	60367
1	197073280	6728	59943
1	197104570	6729	60844
1	197135313	6730	58777
1	197166601	6731	60632
1	197197439	6732	59678
1	197229109	6733	61904
1	197260332	6734	59996
1	197291743	6735	61268
1	197323273	6736	61003
1	197354485	6737	60473
1	197385931	6738	60897
1	197417183	6739	60261
1	197448445	6740	60261
1	197480063	6741	61215
1	197510861	6742	59307
1	197542487	6743	61480
1	197573749	6744	60791
1	197604852	6745	59837
1	197635693	6746	59413
1	197666904	6747	60155
1	197698111	6748	60950
1	197729269	6749	60208
1	197760488	6750	59943
1	197791678	6751	60049
1	197823071	6752	60579
1	197854443	6753	61427
1	197885292	6754	59201
1	197916519	6755	60420
1	197947700	6756	60473
1	197978872	6757	60155
1	198010075	6758	60632
1	198041214	6759	59625
1	198072796	6760	61533
1	198103947	6761	60155
1	198134914	6762	58618
1	198165880	6763	60685
1	198196857	6764	59625
1	198227992	6765	59519
1	198259261	6766	60950
1	198290631	6767	60473
1	198321626	6768	59201
1	198353341	6769	61904
1	198384226	6770	59095
1	198415393	6771	60420
1	198446181	6772	59625
1	198477221	6773	60102
1	198508299	6774	59890
1	198539789	6775	61003
1	198571134	6776	60632
1	198602233	6777	60314
1	198633365	6778	59943
1	198664640	6779	60314
1	198695929	6780	60632
1	198727582	6781	61215
1	198758772	6782	60367
1	198789524	6783	58936
1	198820601	6784	60791
1	198852005	6785	60314
1	198883036	6786	59254
1	198914301	6787	61003
1	198945265	6788	60473
1	198976647	6789	60897
1	199007958	6790	59678
1	199039181	6791	60420
1	199070630	6792	61215
1	199101683	6793	59943
1	199132483	6794	59307
1	199164070	6795	61851
1	199194825	6796	58989
1	199226247	6797	60049
1	199257296	6798	60314
1	199288480	6799	60526
1	199319737	6800	60049
1	199350825	6801	60420
1	199381561	6802	58883
1	199413120	6803	61639
1	199444137	6804	59519
1	199475418	6805	61162
1	199506527	6806	59678
1	199537694	6807	60314
1	199568548	6808	59413
1	199599858	6809	60897
1	199631176	6810	60155
1	199662208	6811	60420
1	199693545	6812	60261
1	199724382	6813	59784
1	199755508	6814	59996
1	199786871	6815	60579
1	199817730	6816	59996
1	199848799	6817	60049
1	199880170	6818	61162
1	199911233	6819	59996
1	199941973	6820	59095
1	199972690	6821	59466
1	200003873	6822	59996
1	200034885	6823	60102
1	200066103	6824	60314
1	200097130	6825	60314
1	200128199	6826	58724
1	200159792	6827	62222
1	200190885	6828	59890
1	200221746	6829	59837
1	200252857	6830	60579
1	200284071	6831	60102
1	200315358	6832	60314
1	200346351	6833	59307
1	200377554	6834	60526
1	200408687	6835	59943
1	200440121	6836	60526
1	200471354	6837	60897
1	200502372	6838	60261
1	200533235	6839	59307
1	200564292	6840	59996
1	200595196	6841	59678
1	200626229	6842	59784
1	200657568	6843	60102
1	200688970	6844	61427
1	200719988	6845	60208
1	200751176	6846	59678
1	200782585	6847	61480
1	200813301	6848	58300
1	200844469	6849	60420
1	200875665	6850	60950
1	200906924	6851	59943
1	200938364	6852	61639
1	200969633	6853	60420
1	201000883	6854	59996
1	201032277	6855	61109
1	201063719	6856	60261
1	201094995	6857	60844
1	201126344	6858	60261
1	201157742	6859	60950
1	201188890	6860	59731
1	201220224	6861	60261
1	201251326	6862	60738
1	201282674	6863	60844
1	201313577	6864	59148
1	201344961	6865	61109
1	201376470	6866	61427
1	201407707	6867	59943
1	201438923	6868	60420
1	201470090	6869	60314
1	201501788	6870	62010
1	201533141	6871	59466
1	201564673	6872	61056
1	201596308	6873	61745
1	201627301	6874	59678
1	201658680	6875	60897
1	201689834	6876	60420
1	201721182	6877	60738
1	201752169	6878	60049
1	201783422	6879	60526
1	201814932	6880	60579
1	201846329	6881	62116
1	201877447	6882	58459
1	201908708	6883	61003
1	201939828	6884	60367
1	201971214	6885	60261
1	202002408	6886	60420
1	202033606	6887	59678
1	202065079	6888	61533
1	202096107	6889	59890
1	202127323	6890	61003
1	202158192	6891	58777
1	202189496	6892	60685
1	202220732	6893	60473
1	202252069	6894	60473
1	202283165	6895	59943
1	202314646	6896	61321
1	202346070	6897	61586
1	202377680	6898	60844
1	202409223	6899	60102
1	202440498	6900	61692
1	202471955	6901	60155
1	202503270	6902	59678
1	202535117	6903	61745
1	202566122	6904	60632
1	202597502	6905	60950
1	202628975	6906	60314
1	202660330	6907	60473
1	202691867	6908	61533
1	202723292	6909	61480
1	202754765	6910	60473
1	202786423	6911	60420
1	202817734	6912	60420
1	202848834	6913	60367
1	202880230	6914	60685
1	202911880	6915	61268
1	202943018	6916	60314
1	202974574	6917	60261
1	203006450	6918	62434
1	203037576	6919	59731
1	203069224	6920	61639
1	203100447	6921	59678
1	203132096	6922	61533
1	203163783	6923	61003
1	203195224	6924	61056
1	203227108	6925	61427
1	203258141	6926	60526
1	203289951	6927	60579
1	203321651	6928	62116
1	203353153	6929	61056
1	203384561	6930	59996
1	203416249	6931	62116
1	203447928	6932	60791
1	203479662	6933	61215
1	203511212	6934	60473
1	203542748	6935	61745
1	203574523	6936	61798
1	203606261	6937	60685
1	203637622	6938	61162
1	203669098	6939	60473
1	203700968	6940	61533
1	203732344	6941	59996
1	203763816	6942	60791
1	203795532	6943	62116
1	203826882	6944	60314
1	203858783	6945	61692
1	203890339	6946	60897
1	203922180	6947	62063
1	203953387	6948	59996
1	203985101	6949	61427
1	204016600	6950	60261
1	204048404	6951	62222
1	204079968	6952	60579
1	204111819	6953	60950
1	204143495	6954	61851
1	204174894	6955	60155
1	204206778	6956	62169
1	204238572	6957	60950
1	204270208	6958	61533
1	204302047	6959	61056
1	204333681	6960	61056
1	204365642	6961	62010
1	204397491	6962	61904
1	204429240	6963	60844
1	204461001	6964	61374
1	204492470	6965	61427
1	204524072	6966	59890
1	204556039	6967	61957
1	204587595	6968	61162
1	204619457	6969	61851
1	204651052	6970	60420
1	204682769	6971	61851
1	204714503	6972	61215
1	204746233	6973	61109
1	204778477	6974	62434
1	204809990	6975	61162
1	204841643	6976	60897
1	204873635	6977	61692
1	204905450	6978	62487
1	204937335	6979	60526
1	204968795	6980	61215
1	205000573	6981	61798
1	205032196	6982	61003
1	205063399	6983	59731
1	205094970	6984	60632
1	205126761	6985	61851
1	205158594	6986	62222
1	205189489	6987	57982
1	205221235	6988	62116
1	205252759	6989	60526
1	205284506	6990	61957
1	205316479	6991	61162
1	205348200	6992	61533
1	205379663	6993	60738
1	205411113	6994	60049
1	205442955	6995	61798
1	205474564	6996	60579
1	205506251	6997	61692
1	205537617	6998	59943
1	205569265	6999	61586
1	205600987	7000	61427
1	205632835	7001	62381
1	205663862	7002	58618
1	205695215	7003	60579
1	205727110	7004	61745
1	205759039	7005	61215
1	205790757	7006	61851
1	205822347	7007	60791
1	205853891	7008	60844
1	205885565	7009	60526
1	205917388	7010	61692
1	205949171	7011	61586
1	205980678	7012	60844
1	206012419	7013	61215
1	206043719	7014	60738
1	206075459	7015	60420
1	206107325	7016	62169
1	206138372	7017	60261
1	206170026	7018	60844
1	206201323	7019	60791
1	206232916	7020	60314
1	206264633	7021	61374
1	206295738	7022	59201
1	206327498	7023	61904
1	206359314	7024	62328
1	206390532	7025	59095
1	206422036	7026	60420
1	206453494	7027	60367
1	206485197	7028	61268
1	206516936	7029	61162
1	206548496	7030	61321
1	206580113	7031	60738
1	206611524	7032	61268
1	206643057	7033	59890
1	206674719	7034	61215
1	206706296	7035	60261
1	206738147	7036	62328
1	206769961	7037	60950
1	206801632	7038	60897
1	206833353	7039	62010
1	206864787	7040	60632
1	206896501	7041	60685
1	206928236	7042	61268
1	206959785	7043	60685
1	206991583	7044	61215
1	207023083	7045	60632
1	207055001	7046	62328
1	207086472	7047	60314
1	207118294	7048	62010
1	207149314	7049	58724
1	207181060	7050	61321
1	207212552	7051	61215
1	207243973	7052	59572
1	207275551	7053	61374
1	207307025	7054	60844
1	207338562	7055	60155
1	207370567	7056	62434
1	207402214	7057	61639
1	207433607	7058	59837
1	207465474	7059	62169
1	207496892	7060	59837
1	207528380	7061	60738
1	207559780	7062	61003
1	207591109	7063	59572
1	207622617	7064	61533
1	207654310	7065	60473
1	207686015	7066	61745
1	207717394	7067	61268
1	207749021	7068	59943
1	207780600	7069	61374
1	207811882	7070	59307
1	207843524	7071	61268
1	207875227	7072	61851
1	207906793	7073	61162
1	207938473	7074	61215
1	207970184	7075	60049
1	208001609	7076	61056
1	208033224	7077	61904
1	208064758	7078	59890
1	208096770	7079	62169
1	208128444	7080	61745
1	208159919	7081	61003
1	208191289	7082	60685
1	208222365	7083	59731
1	208254038	7084	60791
1	208285509	7085	61215
1	208317342	7086	60738
1	208348696	7087	61109
1	208380333	7088	61427
1	208412095	7089	61109
1	208443660	7090	61162
1	208475615	7091	61215
1	208507308	7092	61851
1	208538725	7093	60632
1	208570265	7094	60632
1	208602190	7095	62063
1	208633780	7096	61374
1	208664872	7097	59784
1	208696621	7098	61639
1	208728112	7099	60155
1	208759593	7100	60791
1	208791094	7101	61109
1	208822424	7102	60155
1	208853977	7103	61215
1	208885343	7104	60102
1	208916937	7105	61586
1	208948574	7106	60314
1	208980354	7107	61904
1	209012212	7108	61215
1	209043693	7109	61374
1	209075235	7110	60473
1	209106778	7111	60791
1	209138536	7112	62222
1	209170069	7113	59678
1	209201806	7114	62010
1	209233577	7115	61533
1	209265011	7116	60950
1	209296322	7117	59466
1	209328176	7118	62169
1	209359891	7119	61162
1	209391225	7120	60632
1	209422877	7121	61374
1	209454673	7122	61109
1	209486357	7123	60950
1	209517769	7124	60738
1	209549314	7125	60632
1	209580847	7126	60897
1	209612151	7127	60049
1	209643998	7128	61692
1	209675771	7129	61215
1	209706937	7130	60579
1	209738499	7131	60897
1	209769678	7132	59625
1	209801501	7133	62275
1	209833212	7134	60155
1	209864951	7135	62275
1	209896417	7136	60102
1	209928298	7137	62222
1	209960197	7138	61692
1	209991847	7139	61162
1	210023609	7140	60950
1	210055148	7141	61904