version 2
run BasicCC-2-20100906-02:06:08-176
attr configname BasicCC
attr datetime 20100906-02:06:08
attr experiment BasicCC
attr inifile D:/Developement/Oversim2/multic/simulations/omnetpp.ini
attr iterationvars $mpeers=50
attr iterationvars2 "$mpeers=50, $repetition=0"
attr measurement $mpeers=50
attr mpeers 50
attr network oversim.underlay.simpleunderlay.SimpleUnderlayNetwork
attr processid 176
attr repetition 0
attr replication #0
attr resultdir results
attr runnumber 2
attr seedset 2

vector 1  SimpleUnderlayNetwork.globalObserver.globalStatistics  incoming_bytes  ETV
vector 2  SimpleUnderlayNetwork.globalObserver.globalStatistics  drops  ETV
vector 3  SimpleUnderlayNetwork.globalObserver.globalStatistics  delayed_acks  ETV
vector 4  SimpleUnderlayNetwork.globalObserver.globalStatistics  "GlobalNodeList: Number of nodes"  ETV
vector 5  SimpleUnderlayNetwork.globalObserver.globalStatistics  "GlobalNodeList: Number of bootstrapped malicious nodes"  ETV
1	1672917723	6047	13780
1	1673196595	6048	12402
1	1673475412	6049	14363
1	1673754052	6050	12667
1	1674033123	6051	12508
1	1674311648	6052	13356
1	1674590498	6053	13621
1	1674869226	6054	11925
1	1675147842	6055	13356
1	1675427036	6056	12402
1	1675705440	6057	13038
1	1675984546	6058	14257
1	1676263339	6059	11925
1	1676542039	6060	14257
1	1676820761	6061	13303
1	1677099574	6062	13038
1	1677378305	6063	11660
1	1677657186	6064	13144
1	1677935907	6065	12031
1	1678214750	6066	14098
1	1678493578	6067	11660
1	1678772312	6068	12720
1	1679051165	6069	13886
1	1679329951	6070	12985
1	1679608527	6071	12243
1	1679887347	6072	13356
1	1680166129	6073	12349
1	1680445059	6074	13250
1	1680723752	6075	13886
1	1681002732	6076	13462
1	1681281398	6077	13780
1	1681560012	6078	12667
1	1681838754	6079	12879
1	1682117826	6080	13144
1	1682396513	6081	14151
1	1682675284	6082	13197
1	1682954139	6083	13091
1	1683232811	6084	12137
1	1683511735	6085	13780
1	1683790694	6086	13621
1	1684069277	6087	12667
1	1684347943	6088	12720
1	1684626837	6089	12667
1	1684905474	6090	13091
1	1685184433	6091	13197
1	1685462973	6092	13197
1	1685742006	6093	12879
1	1686020827	6094	13515
1	1686299489	6095	12985
1	1686578350	6096	14416
1	1686857083	6097	12561
1	1687136107	6098	13091
1	1687414759	6099	13568
1	1687693619	6100	13197
1	1687972321	6101	13091
1	1688250986	6102	14522
1	1688529942	6103	13091
1	1688808652	6104	12508
1	1689087363	6105	13992
1	1689366214	6106	12773
1	1689645087	6107	11713
1	1689923894	6108	13356
1	1690202528	6109	12508
1	1690481403	6110	12720
1	1690760229	6111	13515
1	1691038956	6112	13780
1	1691317693	6113	12879
1	1691596410	6114	13091
1	1691875422	6115	13674
1	1692154063	6116	12614
1	1692433046	6117	14416
1	1692711733	6118	13197
1	1692990430	6119	12508
1	1693269205	6120	13038
1	1693548196	6121	12614
1	1693826930	6122	13462
1	1694105452	6123	11713
1	1694384428	6124	12720
1	1694663228	6125	13197
1	1694941901	6126	13091
1	1695220755	6127	12349
1	1695499469	6128	13727
1	1695778352	6129	13038
1	1696057179	6130	13091
1	1696336033	6131	12667
1	1696614784	6132	13091
1	1696893490	6133	11978
1	1697172149	6134	13833
1	1697451054	6135	11819
1	1697729751	6136	11713
1	1698008433	6137	13038
1	1698287400	6138	14522
1	1698566237	6139	12667
1	1698844812	6140	12561
1	1699123658	6141	12296
1	1699402545	6142	13621
1	1699681457	6143	13515
1	1699960066	6144	11872
1	1700238914	6145	12243
1	1700517702	6146	13939
1	1700796559	6147	12190
1	1701075138	6148	14310
1	1701353971	6149	12720
1	1701632783	6150	13727
1	1701911631	6151	13250
1	1702190516	6152	13515
1	1702468970	6153	14310
1	1702748251	6154	13939
1	1703026826	6155	12985
1	1703305694	6156	14469
1	1703584319	6157	11819
1	1703863101	6158	13197
1	1704141818	6159	11925
1	1704420805	6160	12084
1	1704699451	6161	12296
1	1704978240	6162	12508
1	1705257104	6163	15370
1	1705535706	6164	13886
1	1705814492	6165	13621
1	1706093588	6166	12985
1	1706372118	6167	13992
1	1706650935	6168	13568
1	1706929915	6169	12508
1	1707208510	6170	12296
1	1707487316	6171	12402
1	1707766202	6172	12508
1	1708045115	6173	13568
1	1708323764	6174	12084
1	1708602379	6175	12932
1	1708881230	6176	12349
1	1709160100	6177	13727
1	1709438914	6178	11819
1	1709717685	6179	12932
1	1709996592	6180	13197
1	1710275399	6181	13939
1	1710554119	6182	12561
1	1710832893	6183	14204
1	1711111471	6184	12932
1	1711390284	6185	12879
1	1711669187	6186	12349
1	1711948080	6187	13144
1	1712226606	6188	12720
1	1712505478	6189	13091
1	1712784435	6190	11342
1	1713063250	6191	12985
1	1713341563	6192	13568
1	1713620644	6193	13356
1	1713899519	6194	14310
1	1714178305	6195	13303
1	1714456996	6196	12455
1	1714735647	6197	12455
1	1715014435	6198	12084
1	1715293302	6199	14045
1	1715572268	6200	13939
1	1715850976	6201	13674
1	1716129734	6202	13674
1	1716408539	6203	11130
1	1716687351	6204	11925
1	1716966159	6205	13038
1	1717244891	6206	14045
1	1717523811	6207	12508
1	1717802390	6208	11077
1	1718081209	6209	13886
1	1718360044	6210	13356
1	1718638900	6211	13886
1	1718917677	6212	14469
1	1719196271	6213	12667
1	1719475317	6214	12031
1	1719753997	6215	13197
1	1720032701	6216	12879
1	1720311521	6217	13091
1	1720590315	6218	13409
1	1720869094	6219	12879
1	1721148054	6220	13568
1	1721426754	6221	11766
1	1721705427	6222	11713
1	1721984074	6223	12773
1	1722263065	6224	13091
1	1722541742	6225	13144
1	1722820564	6226	12826
1	1723099549	6227	13462
1	1723378135	6228	12932
1	1723656980	6229	13780
1	1723935993	6230	14628
1	1724214479	6231	13727
1	1724493329	6232	13038
1	1724772169	6233	12084
1	1725050781	6234	12243
1	1725329804	6235	13250
1	1725608550	6236	12773
1	1725887241	6237	12773
1	1726166031	6238	13038
1	1726444896	6239	13462
1	1726723622	6240	11660
1	1727002316	6241	12031
1	1727281144	6242	12667
1	1727559746	6243	14575
1	1727838711	6244	13091
1	1728117462	6245	11872
1	1728396322	6246	12667
1	1728675053	6247	12932
1	1728954018	6248	13515
1	1729232680	6249	12720
1	1729511415	6250	12879
1	1729790319	6251	12773
1	1730068925	6252	12084
1	1730348026	6253	14045
1	1730626656	6254	13462
1	1730905373	6255	13038
1	1731184366	6256	16218
1	1731462975	6257	11501
1	1731741666	6258	12932
1	1732020500	6259	12614
1	1732299272	6260	12985
1	1732578092	6261	13356
1	1732856890	6262	13886
1	1733135776	6263	13250
1	1733414527	6264	13144
1	1733693440	6265	13038
1	1733972137	6266	13197
1	1734251184	6267	11766
1	1734529551	6268	13462
1	1734808434	6269	13197
1	1735087049	6270	11766
1	1735365967	6271	14734
1	1735644759	6272	13197
1	1735923448	6273	12932
1	1736202238	6274	12084
1	1736481255	6275	12773
1	1736759888	6276	11024
1	1737038601	6277	14151
1	1737317307	6278	13939
1	1737596203	6279	12190
1	1737875217	6280	12932
1	1738153806	6281	13780
1	1738432690	6282	12190
1	1738711336	6283	12137
1	1738990196	6284	15158
1	1739268904	6285	14999
1	1739547765	6286	14469
1	1739826690	6287	13356
1	1740105396	6288	12773
1	1740384097	6289	11660
1	1740663075	6290	12985
1	1740941793	6291	12667
1	1741220593	6292	13515
1	1741499279	6293	13144
1	1741778165	6294	13038
1	1742056873	6295	13409
1	1742335842	6296	12614
1	1742614348	6297	12773
1	1742893274	6298	12826
1	1743172118	6299	13250
1	1743451068	6300	13568
1	1743729604	6301	14310
1	1744008408	6302	10759
1	1744287140	6303	12031
1	1744565980	6304	12773
1	1744844944	6305	13356
1	1745123435	6306	12826
1	1745402397	6307	12932
1	1745681303	6308	14946
1	1745960009	6309	13674
1	1746238852	6310	14257
1	1746517530	6311	10759
1	1746796310	6312	13462
1	1747075211	6313	12137
1	1747353872	6314	13621
1	1747632597	6315	13780
1	1747911613	6316	14310
1	1748190284	6317	12614
1	1748468818	6318	11501
1	1748747858	6319	13356
1	1749026615	6320	13303
1	1749305541	6321	13833
1	1749584005	6322	12773
1	1749862711	6323	13568
1	1750141628	6324	12190
1	1750420661	6325	12773
1	1750699156	6326	12561
1	1750978105	6327	13462
1	1751256831	6328	12243
1	1751535438	6329	11395
1	1751814440	6330	13250
1	1752093109	6331	12879
1	1752371932	6332	13038
1	1752650796	6333	13038
1	1752929680	6334	12985
1	1753208603	6335	12508
1	1753487083	6336	13038
1	1753765995	6337	12402
1	1754044810	6338	14416
1	1754323410	6339	11236
1	1754602138	6340	11077
1	1754881098	6341	13303
1	1755159718	6342	13144
1	1755438377	6343	11925
1	1755717278	6344	14363
1	1755996054	6345	12031
1	1756274951	6346	13409
1	1756553756	6347	12826
1	1756832265	6348	12720
1	1757111309	6349	12508
1	1757389994	6350	12296
1	1757668775	6351	13144
1	1757947577	6352	12667
1	1758226337	6353	12296
1	1758505131	6354	12826
1	1758783827	6355	13409
1	1759062740	6356	11554
1	1759341555	6357	12084
1	1759620422	6358	13038
1	1759898973	6359	12402
1	1760177760	6360	13197
1	1760456659	6361	14151
1	1760735488	6362	13674
1	1761014062	6363	12773
1	1761293080	6364	13833
1	1761571838	6365	13356
1	1761850562	6366	14045
1	1762129456	6367	12190
1	1762408078	6368	11077
1	1762686947	6369	12985
1	1762965713	6370	12508
1	1763244404	6371	14045
1	1763523206	6372	13833
1	1763801903	6373	12614
1	1764080764	6374	11978
1	1764359437	6375	12508
1	1764638358	6376	13091
1	1764917232	6377	13674
1	1765196019	6378	15158
1	1765475039	6379	14257
1	1765753501	6380	12508
1	1766032608	6381	13038
1	1766311196	6382	13144
1	1766589897	6383	13303
1	1766868774	6384	12614
1	1767147685	6385	12985
1	1767426357	6386	12879
1	1767705090	6387	14045
1	1767983895	6388	13091
1	1768262567	6389	11130
1	1768541314	6390	13091
1	1768820277	6391	13674
1	1769098954	6392	13833
1	1769377849	6393	12084
1	1769656684	6394	14151
1	1769935530	6395	12296
1	1770214221	6396	13674
1	1770492885	6397	12985
1	1770771708	6398	11448
1	1771050550	6399	13568
1	1771329254	6400	12614
1	1771608159	6401	12508
1	1771886889	6402	13038
1	1772165582	6403	12720
1	1772444331	6404	13409
1	1772723073	6405	12349
1	1773001808	6406	12402
1	1773281042	6407	13197
1	1773559488	6408	13621
1	1773838482	6409	13144
1	1774117001	6410	12985
1	1774395803	6411	13144
1	1774674797	6412	11925
1	1774953521	6413	12402
1	1775232226	6414	14257
1	1775511167	6415	12455
1	1775790042	6416	12773
1	1776068504	6417	13356
1	1776347609	6418	11607
1	1776626404	6419	14363
1	1776905095	6420	13356
1	1777183812	6421	12084
1	1777462745	6422	13727
1	1777741490	6423	12349
1	1778020132	6424	11660
1	1778299160	6425	14045
1	1778577626	6426	11766
1	1778856687	6427	13833
1	1779135418	6428	12773
1	1779413901	6429	13780
1	1779692974	6430	11554
1	1779971652	6431	11766
1	1780250116	6432	13515
1	1780529064	6433	13409
1	1780808122	6434	12455
1	1781086754	6435	13356
1	1781365441	6436	13250
1	1781644496	6437	13727
1	1781923092	6438	12296
1	1782201680	6439	12879
1	1782480936	6440	13462
1	1782759420	6441	12455
1	1783038279	6442	14893
1	1783317135	6443	12879
1	1783595890	6444	10918
1	1783874578	6445	12614
1	1784153386	6446	12508
1	1784432132	6447	12084
1	1784711039	6448	12667
1	1784989656	6449	13144
1	1785268493	6450	13727
1	1785547433	6451	12985
1	1785826181	6452	12614
1	1786104805	6453	13356
1	1786383798	6454	13833
1	1786662546	6455	13674
1	1786941242	6456	13303
1	1787220210	6457	13568
1	1787498796	6458	13303
1	1787777773	6459	13674
1	1788056463	6460	14257
1	1788335197	6461	14045
1	1788614027	6462	13568
1	1788892721	6463	13038
1	1789171602	6464	14098
1	1789450337	6465	12826
1	1789729155	6466	13197
1	1790008162	6467	14416
1	1790286798	6468	13462
1	1790565621	6469	13091
1	1790844364	6470	12508
1	1791123047	6471	12084
1	1791401982	6472	14045
1	1791680941	6473	13409
1	1791959406	6474	12879
1	1792238397	6475	14363
1	1792517267	6476	12614
1	1792795936	6477	11872
1	1793074642	6478	12985
1	1793353403	6479	12826
1	1793632269	6480	13303
1	1793911097	6481	13568
1	1794189926	6482	14204
1	1794468769	6483	15582
1	1794747654	6484	13992
1	1795026407	6485	13409
1	1795304998	6486	12296
1	1795583802	6487	13144
1	1795862361	6488	13727
1	1796141470	6489	14204
1	1796420281	6490	13992
1	1796699194	6491	12720
1	1796977720	6492	12561
1	1797256526	6493	12243
1	1797535614	6494	13833
1	1797814042	6495	12296
1	1798092985	6496	13356
1	1798371888	6497	12561
1	1798650559	6498	11978
1	1798929376	6499	12826
1	1799208030	6500	13674
1	1799486857	6501	12455
1	1799765810	6502	13250
1	1800044405	6503	13939
1	1800323265	6504	13833
1	1800602139	6505	13144
1	1800880635	6506	13144
1	1801159607	6507	14310
1	1801438479	6508	13780
1	1801717279	6509	12455
1	1801995975	6510	12720
1	1802274820	6511	13197
1	1802553529	6512	12402
1	1802832421	6513	13250
1	1803111173	6514	12243
1	1803389875	6515	13568
1	1803668879	6516	12667
1	1803947669	6517	12720
1	1804226200	6518	13462
1	1804505148	6519	13462
1	1804783805	6520	12720
1	1805062650	6521	12137
1	1805341559	6522	14204
1	1805620112	6523	11872
1	1805898866	6524	13833
1	1806177945	6525	12985
1	1806456490	6526	12614
1	1806735406	6527	13303
1	1807014194	6528	13197
1	1807293034	6529	13303
1	1807571737	6530	14469
1	1807850651	6531	11713
1	1808129514	6532	12084
1	1808407923	6533	11872
1	1808686755	6534	11713
1	1808965683	6535	13833
1	1809244146	6536	11448
1	1809523085	6537	12667
1	1809801752	6538	12720
1	1810080769	6539	11925
1	1810359504	6540	14522
1	1810638329	6541	12243
1	1810917078	6542	11342
1	1811195873	6543	13038
1	1811474589	6544	12826
1	1811753592	6545	13250
1	1812032009	6546	12826
1	1812311076	6547	11554
1	1812589620	6548	11130
1	1812868466	6549	13833
1	1813147194	6550	13621
1	1813425943	6551	14204
1	1813704804	6552	14151
1	1813983720	6553	14628
1	1814262767	6554	13250
1	1814541176	6555	11925
1	1814820085	6556	13992
1	1815098916	6557	11448
1	1815377725	6558	12773
1	1815656281	6559	11713
1	1815935133	6560	13568
1	1816214005	6561	12985
1	1816492852	6562	13409
1	1816771631	6563	12667
1	1817050379	6564	12349
1	1817329120	6565	13621
1	1817607816	6566	13674
1	1817886609	6567	12985
1	1818165551	6568	13144
1	1818444425	6569	13727
1	1818723065	6570	14416
1	1819001789	6571	12879
1	1819280856	6572	12614
1	1819559342	6573	12190
1	1819838112	6574	11077
1	1820117181	6575	12455
1	1820395723	6576	13939
1	1820674632	6577	14151
1	1820953468	6578	13197
1	1821232281	6579	12720
1	1821510947	6580	14310
1	1821789882	6581	13303
1	1822068566	6582	13621
1	1822347343	6583	13303
1	1822626321	6584	12349
1	1822904748	6585	11978
1	1823183669	6586	12084
1	1823462418	6587	13515
1	1823741370	6588	14098
1	1824020101	6589	13038
1	1824298838	6590	12455
1	1824577415	6591	13462
1	1824856459	6592	12561
1	1825134996	6593	12137
1	1825413777	6594	11766
1	1825692663	6595	13462
1	1825971605	6596	13091
1	1826250504	6597	12667
1	1826529142	6598	14416
1	1826807928	6599	12243
1	1827086750	6600	12190
1	1827365370	6601	11925
1	1827644179	6602	12561
1	1827922926	6603	13038
1	1828201738	6604	13409
1	1828480475	6605	12137
1	1828759292	6606	12720
1	1829038131	6607	12932
1	1829316855	6608	12932
1	1829595562	6609	11766
1	1829874566	6610	11713
1	1830153230	6611	12773
1	1830431821	6612	13833
1	1830710711	6613	13992
1	1830989646	6614	13833
1	1831268429	6615	12879
1	1831547212	6616	12879
1	1831826070	6617	13303
1	1832104592	6618	12296
1	1832383470	6619	12614
1	1832662318	6620	13197
1	1832941072	6621	12243
1	1833219966	6622	12402
1	1833498729	6623	13515
1	1833777428	6624	13462
1	1834056259	6625	13091
1	1834335164	6626	12826
1	1834613807	6627	14045
1	1834892620	6628	13197
1	1835171347	6629	12402
1	1835450125	6630	13462
1	1835728973	6631	14575
1	1836007617	6632	12667
1	1836286576	6633	13197
1	1836565255	6634	13568
1	1836843999	6635	12455
1	1837122889	6636	13780
1	1837401690	6637	13091
1	1837680402	6638	13621
1	1837959247	6639	12826
1	1838238155	6640	12826
1	1838516748	6641	12455
1	1838795617	6642	13356
1	1839074425	6643	13144
1	1839353304	6644	13886
1	1839632030	6645	14310
1	1839910931	6646	13621
1	1840189753	6647	12826
1	1840468343	6648	12773
1	1840747202	6649	13727
1	1841025895	6650	14787
1	1841304784	6651	12296
1	1841583615	6652	12561
1	1841862394	6653	13038
1	1842141112	6654	11872
1	1842419892	6655	14257
1	1842698879	6656	12561
1	1842977322	6657	12826
1	1843256438	6658	13886
1	1843534895	6659	12455
1	1843813913	6660	13992
1	1844092582	6661	13409
1	1844371526	6662	13356
1	1844650368	6663	14416
1	1844929071	6664	13303
1	1845207775	6665	13462
1	1845486573	6666	12879
1	1845765355	6667	12985
1	1846044217	6668	14363
1	1846323015	6669	11501
1	1846601868	6670	12720
1	1846880377	6671	12773
1	1847159233	6672	12932
1	1847438085	6673	13409
1	1847717068	6674	12561
1	1847995697	6675	13356
1	1848274342	6676	12296
1	1848553391	6677	12773
1	1848832162	6678	14681
1	1849110754	6679	13727
1	1849389673	6680	11024
1	1849668440	6681	13250
1	1849947139	6682	12296
1	1850226067	6683	13462
1	1850504760	6684	12667
1	1850783754	6685	13409
1	1851062420	6686	13197
1	1851341139	6687	11395
1	1851619900	6688	11872
1	1851898671	6689	12455
1	1852177406	6690	11925
1	1852456160	6691	12296
1	1852735087	6692	13038
1	1853013777	6693	12879
1	1853292570	6694	11819
1	1853571295	6695	13197
1	1853850155	6696	13356
1	1854128847	6697	12508
1	1854407681	6698	13356
1	1854686425	6699	12932
1	1854965118	6700	12932
1	1855244208	6701	13939
1	1855522893	6702	14151
1	1855801482	6703	12561
1	1856080376	6704	12455
1	1856359048	6705	13515
1	1856637866	6706	11607
1	1856916948	6707	12667
1	1857195634	6708	11448
1	1857474393	6709	13462
1	1857753299	6710	14151
1	1858031902	6711	11978
1	1858310606	6712	11660
1	1858589519	6713	13144
1	1858867982	6714	11713
1	1859147093	6715	13939
1	1859425853	6716	10759
1	1859704754	6717	13833
1	1859983293	6718	13621
1	1860261858	6719	12879
1	1860540884	6720	12296
1	1860819756	6721	12773
1	1861098304	6722	12614
1	1861377168	6723	13727
1	1861655820	6724	13568
1	1861934897	6725	12720
1	1862213606	6726	13515
1	1862492467	6727	12879
1	1862771069	6728	12985
1	1863050122	6729	13727
1	1863328741	6730	12349
1	1863607505	6731	12614
1	1863886366	6732	12137
1	1864165171	6733	13939
1	1864443918	6734	12614
1	1864722715	6735	12826
1	1865001424	6736	11077
1	1865280066	6737	14469
1	1865559074	6738	14946
1	1865837939	6739	13091
1	1866116529	6740	13674
1	1866395472	6741	11607
1	1866674055	6742	12296
1	1866953014	6743	14363
1	1867231537	6744	12614
1	1867510547	6745	13038
1	1867789347	6746	13303
1	1868068070	6747	13515
1	1868346922	6748	13091
1	1868625990	6749	13091
1	1868904351	6750	11236
1	1869183214	6751	12455
1	1869461964	6752	11978
1	1869740831	6753	11342
1	1870019605	6754	14363
1	1870298421	6755	12296
1	1870577288	6756	12932
1	1870855961	6757	12667
1	1871134911	6758	14522
1	1871413484	6759	12455
1	1871692589	6760	14310
1	1871971167	6761	13144
1	1872249880	6762	13356
1	1872528575	6763	11713
1	1872807405	6764	13303
1	1873086072	6765	11448
1	1873364829	6766	13144
1	1873643819	6767	14628
1	1873922585	6768	13833
1	1874201349	6769	13303
1	1874480369	6770	13727
1	1874759111	6771	12561
1	1875037739	6772	12985
1	1875316477	6773	13780
1	1875595271	6774	11713
1	1875874061	6775	13674
1	1876152937	6776	11766
1	1876431598	6777	14469
1	1876710539	6778	12985
1	1876989291	6779	12773
1	1877268041	6780	15158
1	1877546936	6781	13780
1	1877825813	6782	13356
1	1878104516	6783	11925
1	1878383122	6784	13091
1	1878661952	6785	12137
1	1878940751	6786	10600
1	1879219637	6787	12826
1	1879498246	6788	12508
1	1879776885	6789	12402
1	1880055909	6790	12243
1	1880334683	6791	11448
1	1880613323	6792	12561
1	1880892118	6793	12614
1	1881171014	6794	12985
1	1881449680	6795	12508
1	1881728551	6796	13833
1	1882007338	6797	12190
1	1882286124	6798	12084
1	1882564808	6799	12879
1	1882843688	6800	12402
1	1883122299	6801	12826
1	1883401279	6802	13197
1	1883679841	6803	14098
1	1883958874	6804	12508
1	1884237487	6805	13038
1	1884516424	6806	13197
1	1884794992	6807	13197
1	1885073868	6808	13197
1	1885352746	6809	13886
1	1885631611	6810	15688
1	1885910232	6811	13356
1	1886189214	6812	12985
1	1886467992	6813	12190
1	1886746806	6814	11766
1	1887025383	6815	11766
1	1887304208	6816	13727
1	1887583165	6817	12773
1	1887861893	6818	14999
1	1888140745	6819	14416
1	1888419529	6820	12349
1	1888698199	6821	13780
1	1888977045	6822	12985
1	1889255807	6823	13886
1	1889534661	6824	12402
1	1889813467	6825	13250
1	1890092177	6826	12773
1	1890370981	6827	13091
1	1890649991	6828	14204
1	1890928667	6829	13197
1	1891207366	6830	13356
1	1891486160	6831	12720
1	1891765009	6832	12508
1	1892043719	6833	14098
1	1892322599	6834	13038
1	1892601235	6835	12614
1	1892880067	6836	14045
1	1893158906	6837	14310
1	1893437604	6838	13303
1	1893716473	6839	12190
1	1893994988	6840	12720
1	1894274015	6841	12349
1	1894552927	6842	13992
1	1894831639	6843	14204
1	1895110509	6844	12720
1	1895389100	6845	12508
1	1895667733	6846	12296
1	1895946848	6847	14840
1	1896225418	6848	13303
1	1896504444	6849	12561
1	1896783372	6850	13303
1	1897062040	6851	12826
1	1897340589	6852	12773
1	1897619396	6853	12402
1	1897898237	6854	13144
1	1898177265	6855	12826
1	1898455816	6856	13780
1	1898734745	6857	14946
1	1899013633	6858	12243
1	1899292449	6859	13621
1	1899571034	6860	12720
1	1899849918	6861	13886
1	1900128632	6862	14363
1	1900407656	6863	12932
1	1900686128	6864	14045
1	1900965187	6865	13886
1	1901244020	6866	13250
1	1901522590	6867	12455
1	1901801555	6868	12985
1	1902080191	6869	12879
1	1902359123	6870	13939
1	1902637962	6871	13356
1	1902916422	6872	12614
1	1903195212	6873	13197
1	1903474144	6874	13091
1	1903752808	6875	11819
1	1904031821	6876	13568
1	1904310577	6877	12455
1	1904589246	6878	13939
1	1904868074	6879	11713
1	1905146713	6880	12508
1	1905425613	6881	13038
1	1905704378	6882	13250
1	1905983445	6883	12879
1	1906261887	6884	11925
1	1906540804	6885	13833
1	1906819455	6886	11978
1	1907098221	6887	13462
1	1907377104	6888	13833
1	1907655921	6889	12349
1	1907934740	6890	12508
1	1908213372	6891	13197
1	1908492236	6892	11342
1	1908771019	6893	12084
1	1909049719	6894	11395
1	1909328467	6895	12826
1	1909607264	6896	13144
1	1909885874	6897	13091
1	1910164960	6898	12667
1	1910443687	6899	12296
1	1910722362	6900	12137
1	1911001170	6901	12773
1	1911279814	6902	12932
1	1911558797	6903	14204
1	1911837545	6904	12296
1	1912116205	6905	12243
1	1912395003	6906	13250
1	1912673930	6907	13409
1	1912952893	6908	12826
1	1913231494	6909	13780
1	1913510210	6910	12879
1	1913789023	6911	13250
1	1914067920	6912	12084
1	1914346591	6913	13568
1	1914625346	6914	12773
1	1914904116	6915	13727
1	1915183109	6916	12137
1	1915461913	6917	12614
1	1915740532	6918	12826
1	1916019413	6919	12031
1	1916297960	6920	14310
1	1916576747	6921	13144
1	1916855623	6922	12402
1	1917134514	6923	12773
1	1917413374	6924	12402
1	1917692008	6925	13780
1	1917970884	6926	13038
1	1918249659	6927	12455
1	1918528435	6928	13197
1	1918807199	6929	13462
1	1919085905	6930	12137
1	1919364624	6931	13568
1	1919643492	6932	13197
1	1919922225	6933	12667
1	1920201069	6934	13409
1	1920480044	6935	12879
1	1920758839	6936	11660
1	1921037557	6937	13992
1	1921316237	6938	13727
1	1921595049	6939	13780
1	1921873784	6940	13409
1	1922152579	6941	14257
1	1922431587	6942	12031
1	1922710361	6943	12932
1	1922988921	6944	12455
1	1923267646	6945	11554
1	1923546593	6946	11872
1	1923825439	6947	12985
1	1924103990	6948	12720
1	1924382854	6949	12455
1	1924661469	6950	12190
1	1924940530	6951	14469
1	1925219186	6952	13780
1	1925498152	6953	12826
1	1925776986	6954	14363
1	1926055669	6955	13038
1	1926334716	6956	13780
1	1926613097	6957	12561
1	1926891969	6958	11819
1	1927170721	6959	12561
1	1927449470	6960	12508
1	1927728563	6961	11925
1	1928007255	6962	13833
1	1928285992	6963	13303
1	1928564646	6964	12614
1	1928843344	6965	11713
1	1929122179	6966	13515
1	1929401024	6967	12667
1	1929679721	6968	13250
1	1929958505	6969	13038
1	1930237398	6970	13409
1	1930516172	6971	12773
1	1930794839	6972	12720
1	1931073722	6973	12084
1	1931352627	6974	13515
1	1931631319	6975	13568
1	1931909988	6976	12667
1	1932188737	6977	12402
1	1932467483	6978	13144
1	1932746338	6979	13144
1	1933025044	6980	12773
1	1933303963	6981	12879
1	1933582935	6982	11978
1	1933861830	6983	14310
1	1934140204	6984	12985
1	1934419088	6985	12667
1	1934697825	6986	12985
1	1934976675	6987	14204
1	1935255565	6988	12985
1	1935534268	6989	11925
1	1935813037	6990	12932
1	1936091695	6991	12190
1	1936370573	6992	13250
1	1936649353	6993	11978
1	1936928177	6994	12773
1	1937207032	6995	13250
1	1937485671	6996	12349
1	1937764538	6997	12720
1	1938043329	6998	12561
1	1938322048	6999	13568
1	1938600865	7000	13992
1	1938879568	7001	12137
1	1939158562	7002	12455
1	1939437277	7003	14469
1	1939715996	7004	12720
1	1939994824	7005	12614
1	1940273557	7006	14204
1	1940552336	7007	13727
1	1940831250	7008	12455
1	1941109914	7009	12349
1	1941388543	7010	12031
1	1941667495	7011	12932
1	1941946169	7012	12720
1	1942225000	7013	12985
1	1942503912	7014	13727
1	1942782483	7015	12243
1	1943061388	7016	12879
1	1943340099	7017	11130
1	1943618871	7018	12985
1	1943897869	7019	13780
1	1944176452	7020	13144
1	1944455403	7021	12296
1	1944734087	7022	12402
1	1945012808	7023	12561
1	1945291799	7024	13833
1	1945570472	7025	12985
1	1945848880	7026	11925
1	1946127950	7027	13568
1	1946406856	7028	13674
1	1946685630	7029	11978
1	1946964366	7030	13409
1	1947243190	7031	14363
1	1947522151	7032	12614
1	1947800651	7033	12614
1	1948079652	7034	12084
1	1948358289	7035	13409
1	1948637312	7036	13568
1	1948916072	7037	12614
1	1949194665	7038	13038
1	1949473600	7039	13515
1	1949752234	7040	12243
1	1950031125	7041	13091
1	1950309936	7042	12879
1	1950588677	7043	13621
1	1950867390	7044	12137
1	1951146198	7045	12402
1	1951424967	7046	13197
1	1951703841	7047	12031
1	1951982501	7048	13621
1	1952261547	7049	11925
1	1952539899	7050	12084
1	1952818903	7051	13038
1	1953097685	7052	13462
1	1953376543	7053	13409
1	1953655351	7054	12296
1	1953934050	7055	12826
1	1954212851	7056	13356
1	1954491668	7057	13144
1	1954770436	7058	12614
1	1955049016	7059	13515
1	1955327898	7060	13356
1	1955606733	7061	13038
1	1955885516	7062	12031
1	1956164132	7063	12985
1	1956443027	7064	12190
1	1956721869	7065	13356
1	1957000657	7066	13144
1	1957279412	7067	12773
1	1957558269	7068	14628
1	1957837030	7069	12826
1	1958115581	7070	12190
1	1958394717	7071	11872
1	1958673459	7072	14045
1	1958952016	7073	14628
1	1959230773	7074	13621
1	1959509854	7075	12508
1	1959788505	7076	11660
1	1960067109	7077	14045
1	1960346083	7078	11819
1	1960624787	7079	12932
1	1960903596	7080	13038
1	1961182397	7081	13992
1	1961461090	7082	12826
1	1961739884	7083	13780
1	1962018998	7084	15211
1	1962297569	7085	13197
1	1962576613	7086	13462
1	1962855127	7087	13462
1	1963134083	7088	11925
1	1963412715	7089	13091
1	1963691592	7090	13462
1	1963970472	7091	13197
1	1964249250	7092	13197
1	1964527964	7093	13356
1	1964806626	7094	13091
1	1965085488	7095	12932
1	1965364298	7096	12879
1	1965643022	7097	12932
1	1965921823	7098	12084
1	1966200640	7099	13462
1	1966479499	7100	13515
1	1966758201	7101	14204
1	1967037096	7102	12932
1	1967315744	7103	13621
1	1967594595	7104	12826
1	1967873303	7105	11713
1	1968152105	7106	13621
1	1968430921	7107	11713
1	1968709747	7108	12985
1	1968988694	7109	12932
1	1969267191	7110	13038
1	1969546131	7111	12349
1	1969824903	7112	11501
1	1970103471	7113	13144
1	1970382494	7114	11925
1	1970661044	7115	13568
1	1970940099	7116	12773
1	1971218636	7117	12826
1	1971497515	7118	13568
1	1971776310	7119	12561
1	1972055171	7120	12455
1	1972333737	7121	12031
1	1972612608	7122	13568
1	1972891584	7123	12826
1	1973170171	7124	12349
1	1973449014	7125	13515
1	1973727768	7126	13462
1	1974006485	7127	12243
1	1974285279	7128	12296
1	1974564180	7129	13250
1	1974842901	7130	12296
1	1975121600	7131	14098
1	1975400387	7132	12720
1	1975679465	7133	12296
1	1975957948	7134	13144
1	1976236669	7135	12561
1	1976515716	7136	14310
1	1976794403	7137	14469
1	1977073196	7138	13833
1	1977351881	7139	13144
1	1977630724	7140	12296
1	1977909653	7141	13833
1	1978188428	7142	12932
1	1978467195	7143	13568
1	1978745994	7144	12879
1	1979024776	7145	13886
1	1979303674	7146	13462
1	1979582295	7147	13197
1	1979861233	7148	13568
1	1980139918	7149	13992
1	1980418821	7150	13568
1	1980697494	7151	12614
1	1980976396	7152	12773
1	1981255138	7153	12190
1	1981533988	7154	14628
1	1981812651	7155	12402
1	1982091414	7156	13409
1	1982370277	7157	12402
1	1982649085	7158	14469
1	1982927991	7159	10441
1	1983206620	7160	13462
1	1983485430	7161	12773
1	1983763900	7162	11713
1	1984042971	7163	12879
1	1984321901	7164	12826
1	1984600591	7165	13833
1	1984879333	7166	11289
1	1985157961	7167	12667
1	1985436906	7168	12402
1	1985715644	7169	12137
1	1985994511	7170	13780
1	1986273137	7171	12561
1	1986551981	7172	12932
1	1986830766	7173	13621
1	1987109585	7174	11925
1	1987388319	7175	12932
1	1987667246	7176	13568
1	1987945962	7177	13886
1	1988224671	7178	12879
1	1988503666	7179	12561
1	1988782345	7180	13038
1	1989061121	7181	13303
1	1989339852	7182	11077
1	1989618602	7183	13356
1	1989897323	7184	11925
1	1990176076	7185	14151
1	1990454983	7186	11925
1	1990733852	7187	12402
1	1991012460	7188	12561
1	1991291514	7189	12667
1	1991569910	7190	13833
1	1991848795	7191	13038
1	1992127741	7192	12243
1	1992406384	7193	12614
1	1992685314	7194	12137
1	1992964036	7195	12932
1	1993242732	7196	12720
1	1993521479	7197	12985
1	1993800527	7198	14575
1	1994079143	7199	11660
1	1994357787	7200	12455
1	1994636577	7201	12190
1	1994915579	7202	12773
1	1995194170	7203	12296
1	1995473022	7204	12243
1	1995751620	7205	12508
1	1996030454	7206	12826