version 2
run BasicCC-1-20100905-22:21:53-3552
attr configname BasicCC
attr datetime 20100905-22:21:53
attr experiment BasicCC
attr inifile D:/Developement/Oversim2/multic/simulations/omnetpp.ini
attr iterationvars $mpeers=20
attr iterationvars2 "$mpeers=20, $repetition=0"
attr measurement $mpeers=20
attr mpeers 20
attr network oversim.underlay.simpleunderlay.SimpleUnderlayNetwork
attr processid 3552
attr repetition 0
attr replication #0
attr resultdir results
attr runnumber 1
attr seedset 1

vector 1  SimpleUnderlayNetwork.globalObserver.globalStatistics  incoming_bytes  ETV
vector 2  SimpleUnderlayNetwork.globalObserver.globalStatistics  drops  ETV
vector 3  SimpleUnderlayNetwork.globalObserver.globalStatistics  delayed_acks  ETV
vector 4  SimpleUnderlayNetwork.globalObserver.globalStatistics  "GlobalNodeList: Number of nodes"  ETV
vector 5  SimpleUnderlayNetwork.globalObserver.globalStatistics  "GlobalNodeList: Number of bootstrapped malicious nodes"  ETV
1	669041498	6020	3604
1	669152914	6021	3710
1	669264370	6022	3763
1	669375943	6023	3869
1	669487470	6024	4028
1	669598847	6025	4611
1	669710425	6026	4240
1	669821930	6027	3498
1	669933435	6028	4187
1	670044854	6029	3922
1	670156378	6030	3922
1	670267857	6031	3869
1	670379420	6032	4346
1	670490876	6033	4611
1	670602348	6034	3975
1	670713790	6035	4452
1	670825435	6036	4028
1	670936884	6037	3922
1	671048276	6038	4452
1	671159743	6039	2968
1	671271350	6040	3286
1	671382679	6041	4081
1	671494218	6042	3339
1	671605637	6043	4346
1	671717325	6044	3816
1	671828654	6045	3922
1	671940243	6046	2968
1	672051785	6047	3975
1	672163174	6048	4187
1	672274608	6049	3975
1	672386023	6050	3869
1	672497811	6051	3657
1	672609144	6052	4346
1	672720610	6053	3869
1	672832174	6054	4134
1	672943747	6055	4293
1	673055181	6056	4505
1	673166653	6057	3816
1	673278108	6058	4346
1	673389621	6059	4505
1	673501126	6060	3869
1	673612622	6061	3922
1	673724063	6062	3021
1	673835521	6063	3657
1	673947222	6064	4240
1	674058656	6065	3074
1	674170109	6066	3604
1	674281612	6067	4240
1	674393118	6068	4399
1	674504514	6069	3816
1	674616084	6070	3498
1	674727447	6071	4240
1	674839115	6072	3922
1	674950573	6073	4505
1	675061992	6074	3551
1	675173449	6075	4823
1	675285001	6076	4134
1	675396490	6077	3975
1	675507962	6078	4134
1	675619506	6079	3816
1	675730897	6080	3445
1	675842487	6081	4664
1	675953927	6082	3763
1	676065408	6083	4611
1	676177087	6084	3392
1	676288343	6085	4399
1	676399956	6086	4134
1	676511390	6087	4081
1	676622938	6088	3975
1	676734439	6089	3604
1	676845913	6090	4134
1	676957373	6091	4558
1	677068888	6092	4505
1	677180494	6093	4293
1	677291776	6094	3869
1	677403396	6095	3922
1	677514881	6096	3816
1	677626313	6097	2809
1	677737890	6098	3975
1	677849325	6099	4028
1	677960825	6100	2968
1	678072225	6101	3445
1	678183807	6102	3604
1	678295286	6103	4717
1	678406757	6104	4876
1	678518291	6105	4452
1	678629837	6106	3975
1	678741296	6107	3922
1	678852771	6108	3816
1	678964249	6109	4558
1	679075913	6110	3763
1	679187146	6111	4028
1	679298715	6112	4452
1	679410114	6113	3233
1	679521750	6114	4293
1	679633220	6115	4081
1	679744777	6116	4664
1	679856262	6117	3869
1	679967688	6118	4399
1	680079215	6119	4134
1	680190677	6120	3657
1	680302166	6121	3180
1	680413619	6122	3604
1	680525169	6123	4081
1	680636540	6124	4081
1	680748009	6125	4081
1	680859492	6126	4187
1	680971126	6127	3445
1	681082592	6128	4770
1	681194000	6129	4293
1	681305596	6130	5194
1	681417120	6131	4187
1	681528565	6132	3869
1	681640121	6133	4452
1	681751711	6134	3763
1	681863071	6135	3816
1	681974602	6136	3710
1	682086019	6137	3869
1	682197620	6138	4293
1	682308973	6139	3975
1	682420590	6140	4028
1	682532029	6141	3498
1	682643499	6142	4240
1	682754921	6143	4452
1	682866562	6144	3657
1	682978044	6145	3975
1	683089480	6146	3922
1	683200967	6147	3922
1	683312461	6148	3498
1	683423959	6149	4187
1	683535488	6150	4611
1	683646932	6151	4187
1	683758522	6152	4187
1	683869942	6153	3922
1	683981461	6154	3498
1	684092846	6155	3710
1	684204500	6156	4558
1	684315900	6157	4346
1	684427438	6158	3339
1	684538747	6159	3975
1	684650353	6160	3922
1	684761879	6161	3604
1	684873445	6162	4134
1	684984802	6163	4028
1	685096364	6164	4240
1	685207910	6165	4399
1	685319257	6166	3498
1	685430898	6167	4028
1	685542349	6168	3233
1	685653817	6169	3922
1	685765365	6170	3922
1	685876796	6171	4505
1	685988289	6172	4399
1	686099646	6173	4452
1	686211255	6174	4134
1	686322682	6175	4293
1	686434241	6176	3816
1	686545751	6177	3975
1	686657293	6178	4452
1	686768708	6179	4081
1	686880198	6180	4346
1	686991703	6181	4134
1	687103309	6182	3604
1	687214732	6183	3763
1	687326172	6184	3816
1	687437574	6185	3816
1	687549095	6186	3498
1	687660580	6187	4134
1	687772183	6188	3922
1	687883680	6189	3763
1	687995089	6190	3975
1	688106530	6191	3975
1	688217974	6192	3074
1	688329651	6193	4770
1	688441044	6194	4717
1	688552611	6195	3763
1	688664115	6196	3922
1	688775648	6197	3816
1	688887171	6198	4399
1	688998570	6199	4452
1	689110080	6200	4134
1	689221476	6201	3975
1	689333072	6202	4399
1	689444580	6203	4028
1	689556138	6204	4240
1	689667562	6205	4982
1	689778993	6206	3127
1	689890592	6207	4293
1	690002006	6208	3922
1	690113501	6209	3498
1	690224974	6210	3445
1	690336482	6211	4558
1	690447887	6212	3392
1	690559628	6213	3339
1	690670999	6214	3710
1	690782442	6215	4134
1	690893937	6216	4134
1	691005444	6217	4611
1	691117005	6218	3869
1	691228379	6219	4664
1	691340006	6220	3657
1	691451469	6221	3604
1	691562950	6222	3551
1	691674398	6223	3869
1	691785878	6224	4346
1	691897310	6225	3286
1	692008851	6226	3922
1	692120475	6227	3604
1	692231972	6228	4187
1	692343278	6229	3339
1	692454872	6230	4452
1	692566246	6231	3498
1	692677806	6232	4558
1	692789250	6233	3922
1	692900746	6234	3604
1	693012307	6235	3551
1	693123839	6236	3975
1	693235203	6237	4081
1	693346735	6238	4028
1	693458231	6239	4452
1	693569736	6240	4134
1	693681209	6241	4293
1	693792700	6242	3551
1	693904167	6243	3710
1	694015718	6244	3922
1	694127213	6245	5353
1	694238656	6246	4452
1	694350080	6247	4505
1	694461653	6248	3286
1	694573176	6249	4028
1	694684682	6250	3816
1	694796165	6251	3869
1	694907725	6252	4717
1	695019104	6253	4187
1	695130725	6254	4664
1	695242187	6255	3922
1	695353618	6256	3710
1	695465125	6257	3869
1	695576646	6258	4240
1	695688015	6259	4293
1	695799789	6260	5353
1	695911125	6261	3710
1	696022615	6262	4293
1	696134090	6263	4187
1	696245704	6264	3975
1	696357132	6265	4134
1	696468599	6266	3710
1	696580014	6267	4081
1	696691504	6268	3551
1	696803085	6269	4134
1	696914598	6270	3233
1	697026015	6271	3498
1	697137502	6272	4028
1	697248963	6273	3180
1	697360451	6274	4664
1	697471933	6275	4134
1	697583545	6276	3869
1	697694867	6277	3922
1	697806446	6278	4028
1	697918066	6279	3869
1	698029402	6280	4611
1	698140895	6281	2809
1	698252468	6282	4240
1	698363928	6283	5353
1	698475448	6284	4717
1	698586923	6285	4028
1	698698414	6286	3710
1	698809994	6287	3445
1	698921413	6288	3657
1	699033062	6289	4346
1	699144285	6290	4505
1	699255976	6291	3869
1	699367299	6292	3975
1	699478921	6293	4187
1	699590298	6294	4134
1	699701857	6295	3551
1	699813344	6296	4134
1	699924886	6297	4293
1	700036334	6298	4452
1	700147979	6299	3551
1	700259330	6300	4346
1	700370838	6301	3233
1	700482371	6302	4293
1	700593752	6303	4346
1	700705158	6304	3710
1	700816744	6305	3975
1	700928339	6306	4611
1	701039836	6307	3869
1	701151312	6308	4452
1	701262881	6309	4399
1	701374281	6310	3657
1	701485851	6311	4240
1	701597258	6312	3869
1	701708767	6313	4452
1	701820240	6314	3763
1	701931635	6315	4134
1	702043273	6316	3922
1	702154786	6317	4399
1	702266290	6318	4187
1	702377685	6319	4187
1	702489189	6320	4982
1	702600789	6321	4134
1	702712134	6322	3021
1	702823732	6323	3816
1	702935278	6324	3657
1	703046788	6325	3604
1	703158265	6326	3657
1	703269638	6327	4664
1	703381127	6328	4611
1	703492659	6329	4823
1	703604103	6330	4452
1	703715657	6331	4187
1	703827087	6332	3392
1	703938565	6333	4028
1	704050266	6334	4505
1	704161661	6335	4028
1	704273153	6336	3551
1	704384535	6337	4611
1	704496165	6338	3233
1	704607538	6339	4187
1	704719058	6340	4505
1	704830538	6341	3657
1	704942142	6342	3710
1	705053493	6343	3869
1	705165031	6344	4399
1	705276479	6345	3233
1	705388148	6346	3975
1	705499566	6347	4611
1	705611081	6348	4240
1	705722523	6349	3710
1	705834033	6350	4452
1	705945562	6351	4081
1	706057017	6352	4187
1	706168583	6353	4134
1	706280063	6354	4240
1	706391463	6355	3392
1	706502910	6356	3233
1	706614511	6357	3816
1	706725943	6358	3816
1	706837416	6359	4187
1	706948931	6360	2915
1	707060531	6361	4505
1	707171868	6362	4081
1	707283399	6363	4293
1	707394902	6364	4081
1	707506449	6365	3922
1	707617910	6366	3604
1	707729419	6367	4452
1	707840794	6368	4611
1	707952481	6369	4134
1	708063792	6370	3710
1	708175358	6371	3975
1	708286848	6372	3551
1	708398282	6373	4293
1	708509917	6374	3763
1	708621301	6375	3763
1	708732767	6376	3869
1	708844266	6377	3604
1	708955768	6378	3180
1	709067358	6379	4134
1	709178654	6380	3286
1	709290258	6381	3869
1	709401718	6382	4028
1	709513280	6383	4876
1	709624697	6384	3233
1	709736243	6385	4293
1	709847567	6386	4187
1	709959167	6387	4611
1	710070703	6388	4081
1	710182186	6389	3922
1	710293764	6390	4558
1	710405160	6391	4293
1	710516685	6392	3869
1	710628138	6393	4240
1	710739685	6394	4611
1	710851277	6395	4187
1	710962717	6396	4240
1	711074186	6397	3551
1	711185617	6398	3922
1	711297155	6399	3922
1	711408640	6400	4770
1	711520107	6401	3233
1	711631723	6402	4823
1	711743137	6403	4134
1	711854580	6404	4346
1	711966190	6405	4240
1	712077526	6406	3869
1	712189069	6407	4134
1	712300556	6408	3869
1	712412064	6409	4717
1	712523623	6410	3816
1	712635090	6411	4134
1	712746607	6412	3869
1	712858139	6413	4081
1	712969529	6414	3445
1	713081047	6415	4770
1	713192483	6416	3922
1	713304129	6417	4081
1	713415560	6418	3498
1	713526943	6419	4505
1	713638581	6420	3445
1	713750022	6421	3498
1	713861471	6422	3021
1	713972999	6423	4346
1	714084520	6424	4240
1	714195941	6425	4028
1	714307448	6426	4134
1	714418982	6427	4770
1	714530470	6428	4028
1	714642030	6429	3392
1	714753327	6430	3869
1	714864903	6431	3551
1	714976366	6432	3657
1	715087806	6433	3498
1	715199346	6434	3551
1	715310932	6435	3975
1	715422416	6436	4134
1	715533874	6437	3657
1	715645334	6438	4346
1	715756825	6439	3710
1	715868308	6440	4240
1	715979817	6441	4505
1	716091191	6442	4187
1	716202779	6443	4611
1	716314279	6444	3657
1	716425786	6445	4187
1	716537308	6446	4187
1	716648758	6447	3922
1	716760237	6448	4293
1	716871768	6449	3816
1	716983160	6450	4028
1	717094750	6451	4187
1	717206285	6452	4134
1	717317771	6453	3445
1	717429227	6454	4346
1	717540734	6455	3710
1	717652188	6456	4717
1	717763681	6457	3922
1	717875287	6458	4346
1	717986762	6459	3339
1	718098134	6460	4240
1	718209687	6461	3551
1	718321210	6462	3604
1	718432790	6463	3922
1	718544125	6464	4823
1	718655598	6465	4081
1	718767081	6466	3922
1	718878616	6467	3604
1	718990129	6468	4134
1	719101666	6469	3869
1	719213144	6470	3604
1	719324622	6471	3763
1	719436067	6472	4081
1	719547439	6473	4240
1	719659081	6474	4187
1	719770616	6475	4293
1	719882073	6476	4876
1	719993602	6477	3286
1	720105055	6478	3657
1	720216529	6479	3975
1	720328117	6480	4028
1	720439558	6481	4399
1	720550966	6482	4929
1	720662499	6483	4611
1	720774109	6484	4134
1	720885534	6485	4081
1	720996952	6486	4134
1	721108530	6487	4770
1	721220038	6488	4717
1	721331576	6489	4823
1	721443100	6490	3975
1	721554633	6491	4399
1	721666091	6492	3975
1	721777501	6493	3869
1	721889101	6494	3180
1	722000463	6495	3816
1	722111845	6496	3498
1	722223471	6497	3816
1	722334935	6498	3763
1	722446492	6499	4134
1	722557871	6500	4452
1	722669455	6501	4876
1	722780995	6502	3763
1	722892399	6503	3816
1	723003984	6504	3657
1	723115370	6505	3233
1	723226974	6506	4187
1	723338288	6507	3869
1	723449884	6508	4028
1	723561348	6509	4187
1	723672832	6510	5035
1	723784317	6511	3816
1	723895859	6512	4187
1	724007375	6513	3763
1	724118866	6514	3869
1	724230362	6515	4240
1	724341755	6516	4399
1	724453448	6517	4982
1	724564898	6518	4505
1	724676414	6519	4452
1	724787715	6520	4770
1	724899318	6521	3657
1	725010844	6522	3498
1	725122343	6523	4028
1	725233892	6524	3816
1	725345342	6525	3551
1	725456730	6526	4770
1	725568389	6527	3604
1	725679799	6528	4187
1	725791345	6529	3710
1	725902711	6530	3816
1	726014315	6531	3604
1	726125761	6532	3816
1	726237203	6533	3710
1	726348747	6534	4134
1	726460115	6535	3975
1	726571746	6536	4346
1	726683299	6537	4664
1	726794704	6538	4399
1	726906208	6539	4452
1	727017717	6540	3498
1	727129208	6541	3922
1	727240613	6542	3551
1	727352199	6543	3869
1	727463679	6544	3392
1	727575158	6545	3869
1	727686596	6546	4558
1	727798207	6547	3657
1	727909623	6548	4293
1	728021136	6549	3657
1	728132576	6550	3763
1	728244027	6551	4611
1	728355634	6552	3869
1	728467056	6553	4346
1	728578444	6554	3869
1	728690010	6555	3498
1	728801539	6556	4240
1	728913147	6557	4134
1	729024517	6558	4134
1	729136035	6559	3975
1	729247493	6560	4134
1	729358967	6561	3922
1	729470561	6562	3975
1	729581978	6563	3869
1	729693379	6564	3710
1	729805054	6565	4240
1	729916421	6566	4134
1	730028036	6567	4717
1	730139483	6568	3657
1	730251007	6569	3869
1	730362515	6570	4134
1	730473936	6571	3763
1	730585542	6572	3286
1	730696879	6573	4293
1	730808423	6574	3816
1	730919855	6575	4187
1	731031316	6576	3445
1	731142764	6577	3710
1	731254268	6578	3392
1	731365790	6579	3869
1	731477361	6580	3869
1	731588774	6581	3869
1	731700160	6582	4452
1	731811784	6583	4505
1	731923372	6584	3551
1	732034730	6585	3869
1	732146317	6586	4081
1	732257849	6587	4664
1	732369314	6588	3657
1	732480701	6589	4240
1	732592211	6590	3339
1	732703773	6591	4452
1	732815245	6592	2915
1	732926664	6593	4823
1	733038197	6594	3657
1	733149732	6595	4187
1	733261254	6596	4982
1	733372672	6597	4028
1	733484358	6598	3286
1	733595747	6599	4240
1	733707278	6600	3604
1	733818775	6601	3922
1	733930123	6602	4293
1	734041708	6603	4134
1	734153191	6604	4028
1	734264595	6605	4028
1	734376104	6606	3763
1	734487610	6607	3392
1	734599072	6608	3339
1	734710628	6609	3922
1	734822061	6610	4134
1	734933575	6611	3233
1	735044993	6612	4081
1	735156588	6613	3869
1	735267967	6614	5300
1	735379584	6615	4717
1	735491069	6616	3975
1	735602495	6617	3975
1	735714105	6618	4399
1	735825411	6619	3816
1	735936898	6620	3498
1	736048622	6621	4346
1	736160075	6622	4558
1	736271564	6623	4558
1	736383061	6624	3127
1	736494484	6625	3869
1	736606020	6626	4240
1	736717513	6627	4028
1	736829042	6628	4028
1	736940455	6629	4134
1	737052031	6630	3816
1	737163499	6631	3869
1	737274924	6632	3922
1	737386412	6633	3922
1	737497923	6634	3074
1	737609439	6635	4134
1	737720880	6636	4028
1	737832442	6637	4346
1	737943888	6638	3869
1	738055452	6639	4240
1	738166875	6640	4028
1	738278390	6641	3975
1	738389836	6642	3710
1	738501342	6643	3922
1	738612812	6644	3604
1	738724262	6645	3021
1	738835777	6646	3127
1	738947291	6647	4293
1	739058818	6648	4293
1	739170309	6649	3816
1	739281725	6650	4399
1	739393206	6651	3763
1	739504786	6652	4134
1	739616076	6653	3710
1	739727789	6654	4929
1	739839252	6655	3922
1	739950813	6656	3445
1	740062337	6657	4717
1	740173811	6658	3869
1	740285207	6659	4293
1	740396721	6660	4399
1	740508284	6661	3339
1	740619735	6662	3233
1	740731228	6663	4134
1	740842711	6664	4717
1	740954098	6665	3975
1	741065689	6666	3763
1	741177090	6667	3922
1	741288656	6668	3604
1	741400133	6669	4134
1	741511590	6670	4081
1	741623033	6671	4134
1	741734578	6672	4399
1	741846005	6673	4558
1	741957687	6674	3657
1	742069090	6675	3551
1	742180589	6676	4293
1	742292047	6677	4505
1	742403489	6678	3869
1	742515017	6679	3763
1	742626475	6680	4876
1	742737978	6681	3869
1	742849515	6682	3021
1	742961104	6683	3551
1	743072497	6684	4823
1	743183971	6685	3816
1	743295506	6686	3816
1	743406957	6687	4452
1	743518452	6688	3445
1	743629986	6689	4187
1	743741488	6690	3975
1	743853019	6691	3710
1	743964388	6692	4028
1	744075989	6693	3869
1	744187330	6694	3180
1	744298963	6695	3233
1	744410337	6696	4028
1	744521879	6697	3816
1	744633410	6698	3233
1	744744878	6699	3922
1	744856309	6700	4346
1	744967725	6701	3657
1	745079327	6702	4081
1	745190855	6703	3498
1	745302258	6704	2968
1	745413770	6705	4717
1	745525335	6706	4929
1	745636783	6707	4929
1	745748207	6708	3498
1	745859719	6709	4505
1	745971330	6710	3551
1	746082715	6711	3180
1	746194258	6712	4081
1	746305848	6713	4558
1	746417208	6714	3763
1	746528763	6715	4134
1	746640185	6716	4558
1	746751774	6717	3127
1	746863249	6718	3869
1	746974721	6719	4452
1	747086234	6720	3975
1	747197704	6721	3922
1	747309169	6722	4028
1	747420657	6723	4399
1	747532205	6724	4028
1	747643656	6725	4028
1	747755108	6726	4505
1	747866598	6727	3498
1	747978044	6728	3498
1	748089455	6729	3021
1	748201170	6730	3816
1	748312649	6731	4717
1	748424149	6732	3551
1	748535617	6733	4346
1	748647078	6734	4081
1	748758546	6735	3657
1	748870004	6736	3710
1	748981503	6737	3710
1	749093005	6738	4081
1	749204401	6739	3975
1	749315972	6740	4081
1	749427541	6741	4187
1	749539055	6742	4611
1	749650547	6743	3498
1	749762014	6744	3922
1	749873523	6745	3551
1	749984901	6746	4134
1	750096487	6747	4823
1	750208020	6748	3975
1	750319416	6749	3869
1	750430983	6750	4293
1	750542512	6751	3763
1	750653958	6752	3604
1	750765443	6753	3869
1	750876907	6754	4664
1	750988373	6755	4770
1	751099969	6756	3922
1	751211464	6757	4187
1	751322857	6758	4028
1	751434434	6759	4293
1	751545908	6760	2968
1	751657378	6761	3869
1	751768978	6762	4823
1	751880310	6763	3657
1	751991817	6764	4028
1	752103254	6765	4346
1	752214854	6766	3392
1	752326269	6767	3180
1	752437796	6768	4505
1	752549248	6769	4187
1	752660815	6770	4240
1	752772363	6771	4187
1	752883755	6772	3604
1	752995297	6773	4134
1	753106641	6774	3445
1	753218392	6775	4187
1	753329752	6776	3922
1	753441225	6777	4452
1	753552712	6778	3551
1	753664255	6779	4717
1	753775833	6780	4081
1	753887182	6781	3180
1	753998733	6782	3021
1	754110241	6783	4876
1	754221695	6784	3869
1	754333111	6785	3233
1	754444630	6786	3657
1	754556181	6787	3922
1	754667572	6788	4770
1	754779123	6789	3286
1	754890698	6790	2915
1	755002147	6791	3869
1	755113630	6792	4293
1	755225063	6793	4028
1	755336547	6794	3551
1	755448124	6795	3233
1	755559541	6796	4717
1	755670884	6797	4611
1	755782612	6798	3127
1	755894025	6799	4823
1	756005497	6800	3710
1	756117040	6801	3233
1	756228418	6802	4823
1	756340013	6803	3498
1	756451339	6804	3498
1	756562990	6805	3922
1	756674465	6806	4452
1	756785863	6807	4611
1	756897449	6808	4187
1	757008946	6809	4664
1	757120352	6810	3498
1	757231793	6811	2968
1	757343340	6812	4187
1	757455039	6813	3816
1	757566395	6814	4028
1	757677916	6815	3339
1	757789351	6816	4134
1	757900901	6817	2862
1	758012330	6818	4240
1	758123838	6819	4611
1	758235340	6820	3710
1	758346828	6821	3392
1	758458406	6822	4346
1	758569821	6823	4611
1	758681330	6824	3445
1	758792752	6825	3763
1	758904351	6826	4982
1	759015773	6827	3286
1	759127274	6828	3445
1	759238701	6829	4028
1	759350184	6830	3551
1	759461808	6831	3922
1	759573132	6832	3657
1	759684658	6833	4346
1	759796225	6834	3710
1	759907731	6835	3763
1	760019228	6836	4240
1	760130606	6837	4346
1	760242253	6838	4452
1	760353664	6839	4187
1	760465125	6840	4028
1	760576660	6841	3657
1	760688125	6842	3498
1	760799667	6843	4134
1	760911105	6844	4134
1	761022519	6845	3816
1	761134188	6846	4505
1	761245582	6847	4134
1	761357175	6848	3975
1	761468584	6849	3763
1	761580051	6850	4134
1	761691550	6851	3498
1	761802973	6852	4611
1	761914588	6853	3233
1	762026021	6854	4611
1	762137576	6855	3233
1	762249038	6856	4134
1	762360544	6857	3657
1	762472084	6858	4452
1	762583622	6859	4134
1	762695105	6860	3816
1	762806426	6861	4929
1	762918012	6862	3975
1	763029613	6863	4505
1	763140991	6864	4399
1	763252501	6865	3657
1	763363926	6866	3604
1	763475419	6867	3127
1	763586925	6868	3604
1	763698372	6869	4399
1	763809918	6870	3975
1	763921492	6871	3869
1	764033009	6872	4081
1	764144343	6873	3339
1	764255805	6874	4399
1	764367401	6875	4081
1	764478835	6876	4664
1	764590389	6877	4134
1	764701817	6878	4823
1	764813352	6879	3975
1	764924763	6880	3604
1	765036322	6881	5353
1	765147924	6882	3604
1	765259353	6883	3816
1	765370810	6884	4399
1	765482422	6885	4293
1	765593899	6886	4452
1	765705330	6887	4611
1	765816883	6888	4664
1	765928392	6889	3551
1	766039863	6890	3339
1	766151422	6891	4240
1	766262785	6892	3869
1	766374222	6893	4558
1	766485981	6894	4240
1	766597276	6895	4452
1	766708702	6896	3710
1	766820278	6897	3869
1	766931722	6898	3710
1	767043253	6899	3975
1	767154781	6900	3763
1	767266265	6901	3869
1	767377684	6902	3975
1	767489258	6903	4717
1	767600697	6904	4558
1	767712270	6905	4134
1	767823648	6906	3657
1	767935193	6907	3392
1	768046736	6908	3763
1	768158231	6909	3869
1	768269649	6910	4823
1	768381157	6911	4611
1	768492752	6912	4664
1	768604209	6913	4346
1	768715698	6914	3975
1	768827235	6915	4452
1	768938515	6916	4399
1	769050180	6917	3233
1	769161682	6918	3551
1	769273139	6919	4081
1	769384693	6920	3816
1	769496110	6921	4240
1	769607679	6922	3922
1	769719116	6923	3657
1	769830514	6924	4293
1	769942000	6925	4505
1	770053714	6926	4346
1	770165050	6927	3604
1	770276584	6928	3816
1	770388258	6929	5035
1	770499572	6930	3869
1	770611237	6931	4452
1	770722627	6932	3869
1	770834199	6933	3498
1	770945600	6934	3763
1	771057052	6935	4240
1	771168542	6936	3657
1	771279985	6937	3498
1	771391598	6938	4399
1	771503122	6939	3498
1	771614416	6940	3657
1	771726075	6941	4346
1	771837594	6942	4929
1	771948961	6943	3922
1	772060484	6944	4346
1	772172022	6945	4134
1	772283544	6946	3657
1	772395099	6947	4611
1	772506520	6948	3922
1	772617955	6949	4399
1	772729516	6950	3286
1	772840929	6951	4028
1	772952458	6952	4929
1	773063925	6953	3975
1	773175424	6954	3922
1	773286909	6955	3604
1	773398432	6956	3339
1	773510021	6957	4028
1	773621384	6958	4134
1	773732892	6959	3869
1	773844326	6960	4134
1	773955818	6961	4240
1	774067344	6962	3498
1	774178859	6963	4081
1	774290411	6964	3922
1	774401811	6965	3975
1	774513386	6966	4028
1	774624879	6967	3922
1	774736103	6968	3657
1	774847845	6969	3763
1	774959232	6970	3445
1	775070748	6971	3604
1	775182249	6972	4187
1	775293719	6973	4028
1	775405258	6974	4134
1	775516694	6975	4028
1	775628149	6976	4187
1	775739782	6977	3445
1	775851209	6978	3604
1	775962694	6979	4452
1	776074128	6980	3074
1	776185579	6981	3922
1	776297105	6982	4293
1	776408590	6983	4505
1	776520147	6984	4028
1	776631649	6985	3922
1	776743199	6986	4028
1	776854616	6987	4187
1	776966149	6988	4240
1	777077553	6989	4028
1	777189050	6990	4611
1	777300631	6991	4664
1	777412094	6992	4823
1	777523624	6993	4399
1	777635222	6994	4452
1	777746614	6995	3816
1	777858220	6996	3710
1	777969586	6997	5353
1	778081160	6998	3392
1	778192643	6999	4505
1	778304103	7000	3604
1	778415619	7001	3657
1	778527027	7002	3975
1	778638520	7003	3816
1	778749974	7004	4028
1	778861619	7005	4028
1	778973052	7006	4823
1	779084582	7007	3922
1	779196065	7008	4081
1	779307399	7009	3445
1	779419051	7010	4187
1	779530528	7011	4611
1	779642070	7012	3657
1	779753556	7013	3816
1	779865038	7014	3869
1	779976653	7015	3551
1	780087886	7016	4558
1	780199524	7017	4717
1	780311062	7018	4611
1	780422427	7019	3763
1	780534074	7020	4240
1	780645438	7021	4240
1	780756942	7022	4876
1	780868465	7023	4187
1	780980016	7024	4823
1	781091364	7025	4240
1	781202952	7026	3551
1	781314507	7027	4558
1	781425896	7028	5088
1	781537469	7029	4028
1	781648953	7030	3657
1	781760378	7031	4558
1	781871993	7032	4505
1	781983439	7033	5035
1	782095000	7034	3604
1	782206532	7035	4399
1	782317831	7036	3922
1	782429528	7037	4399
1	782540822	7038	3710
1	782652408	7039	4346
1	782763895	7040	4399
1	782875455	7041	3657
1	782987013	7042	4558
1	783098495	7043	4187
1	783209956	7044	3869
1	783321563	7045	5141
1	783432820	7046	3604
1	783544338	7047	3604
1	783655900	7048	3816
1	783767254	7049	3445
1	783878893	7050	4346
1	783990459	7051	4293
1	784101658	7052	3392
1	784213446	7053	4452
1	784324806	7054	3339
1	784436374	7055	4081
1	784547814	7056	4240
1	784659260	7057	4028
1	784770748	7058	3392
1	784882315	7059	5088
1	784993930	7060	3816
1	785105214	7061	4399
1	785216749	7062	4505
1	785328305	7063	3657
1	785439813	7064	3869
1	785551224	7065	3339
1	785662692	7066	3657
1	785774200	7067	3339
1	785885664	7068	3392
1	785997231	7069	4187
1	786108712	7070	3763
1	786220175	7071	4134
1	786331698	7072	3233
1	786443139	7073	4028
1	786554703	7074	4876
1	786666154	7075	3339
1	786777667	7076	4558
1	786889137	7077	3551
1	787000610	7078	4399
1	787112156	7079	4293
1	787223588	7080	3551
1	787335160	7081	4452
1	787446676	7082	3021
1	787558113	7083	3710
1	787669488	7084	3869
1	787780986	7085	4081
1	787892551	7086	3498
1	788003916	7087	3869
1	788115463	7088	3286
1	788227014	7089	3975
1	788338502	7090	3763
1	788449965	7091	4346
1	788561435	7092	3339
1	788672894	7093	3445
1	788784458	7094	3657
1	788895983	7095	4081
1	789007490	7096	4929
1	789118976	7097	3445
1	789230416	7098	4134
1	789341836	7099	3551
1	789453280	7100	3816
1	789564893	7101	4187
1	789676403	7102	4399
1	789787826	7103	3763
1	789899296	7104	4028
1	790010942	7105	4346
1	790122269	7106	4399
1	790233834	7107	3763
1	790345396	7108	4293
1	790456795	7109	3551
1	790568314	7110	4452
1	790679790	7111	4558
1	790791282	7112	3816
1	790902804	7113	4134
1	791014310	7114	3551
1	791125804	7115	4823
1	791237331	7116	3869
1	791348922	7117	4399
1	791460335	7118	4081
1	791571740	7119	4134
1	791683150	7120	3763
1	791794668	7121	3869
1	791906236	7122	3286
1	792017672	7123	3922
1	792129170	7124	3763
1	792240699	7125	3657
1	792352144	7126	4293
1	792463636	7127	3233
1	792575281	7128	4664
1	792686659	7129	4134
1	792798168	7130	4293
1	792909601	7131	4717
1	793021343	7132	4399
1	793132669	7133	3922
1	793244140	7134	4134
1	793355612	7135	3604
1	793467083	7136	2968
1	793578556	7137	3604
1	793690059	7138	3498
1	793801708	7139	3816
1	793913072	7140	3339
1	794024553	7141	3922
1	794135995	7142	3127
1	794247540	7143	3498
1	794359015	7144	4240
1	794470462	7145	4558
1	794581825	7146	2862
1	794693441	7147	4240
1	794804886	7148	3975
1	794916482	7149	4505
1	795027931	7150	3975
1	795139617	7151	3922
1	795250980	7152	4081
1	795362457	7153	4611
1	795473996	7154	4346
1	795585417	7155	3339
1	795696856	7156	3498
1	795808383	7157	4187
1	795919856	7158	3392
1	796031343	7159	4187
1	796142876	7160	4134
1	796254383	7161	3604
1	796365865	7162	3604
1	796477263	7163	4240
1	796588781	7164	4452
1	796700387	7165	3763
1	796811806	7166	4770
1	796923368	7167	3922
1	797034893	7168	3339
1	797146283	7169	4240
1	797257795	7170	4081
1	797369255	7171	4187
1	797480795	7172	4664
1	797592234	7173	4081
1	797703739	7174	3710
1	797815308	7175	3922
1	797926791	7176	3816
1	798038296	7177	3551
1	798149787	7178	4823
1	798261272	7179	3763
1	798372692	7180	2809
1	798484161	7181	4399
1	798595608	7182	4452
1	798707228	7183	3498
1	798818734	7184	4293
1	798930142	7185	3869
1	799041674	7186	3180
1	799153246	7187	3657
1	799264610	7188	3604
1	799376143	7189	3233
1	799487618	7190	3604
1	799599048	7191	4505
1	799710575	7192	4664
1	799822035	7193	4346
1	799933625	7194	3021
1	800045124	7195	4452
1	800156592	7196	3975
1	800268052	7197	4346
1	800379552	7198	4346
1	800491022	7199	3869
1	800602519	7200	4240
1	800714123	7201	4293
1	800825459	7202	4028
1	800937107	7203	4028
1	801048416	7204	3604
1	801160046	7205	4028
1	801271503	7206	3869
1	801382923	7207	3657
1	801494432	7208	3975
1	801606058	7209	4028
1	801717461	7210	4187
1	801829069	7211	4558
1	801940524	7212	4611
1	802051999	7213	4028
1	802163431	7214	3339
1	802274821	7215	4028
1	802386257	7216	3763
1	802497993	7217	4346
1	802609495	7218	3922
1	802720868	7219	4081
1	802832419	7220	3657
1	802943924	7221	5194
1	803055383	7222	3816
1	803166775	7223	3816
1	803278315	7224	3551
1	803389882	7225	3657
1	803501389	7226	4028
1	803612827	7227	3763
1	803724279	7228	3127
1	803835804	7229	3604
1	803947296	7230	3445
1	804058781	7231	4240
1	804170147	7232	3763
1	804281784	7233	4134
1	804393200	7234	4134
1	804504742	7235	3392
1	804616219	7236	4240
1	804727693	7237	3922
1	804839323	7238	3816
1	804950717	7239	3710
1	805062231	7240	3763
1	805173519	7241	3604
1	805285248	7242	4081
1	805396564	7243	4028
1	805508204	7244	4081
1	805619584	7245	4558
1	805731076	7246	3763
1	805842594	7247	3816
1	805954202	7248	3869
1	806065537	7249	4823
1	806177209	7250	4187
1	806288713	7251	3604
1	806400067	7252	4346
1	806511488	7253	3498
1	806623091	7254	3392
1	806734562	7255	3710
1	806846158	7256	4399
1	806957472	7257	3869
1	807069002	7258	3869
1	807180556	7259	3604
1	807291968	7260	4187
1	807403469	7261	4452
1	807515010	7262	4187
1	807626421	7263	3869
1	807737950	7264	4240
1	807849475	7265	4134
1	807960875	7266	3657
1	808072398	7267	4081
1	808184079	7268	4240
1	808295448	7269	3922
1	808406916	7270	4346
1	808518422	7271	4187
1	808629962	7272	4293
1	808741445	7273	3657
1	808852842	7274	3975
1	808964407	7275	4081
1	809075913	7276	4187
1	809187556	7277	4876
1	809298928	7278	3975
1	809410449	7279	3975
1	809521888	7280	3604