version 2
run BasicCC-0-20100905-20:33:34-820
attr configname BasicCC
attr datetime 20100905-20:33:34
attr experiment BasicCC
attr inifile D:/Developement/Oversim2/multic/simulations/omnetpp.ini
attr iterationvars $mpeers=10
attr iterationvars2 "$mpeers=10, $repetition=0"
attr measurement $mpeers=10
attr mpeers 10
attr network oversim.underlay.simpleunderlay.SimpleUnderlayNetwork
attr processid 820
attr repetition 0
attr replication #0
attr resultdir results
attr runnumber 0
attr seedset 0

vector 1  SimpleUnderlayNetwork.globalObserver.globalStatistics  incoming_bytes  ETV
vector 2  SimpleUnderlayNetwork.globalObserver.globalStatistics  drops  ETV
vector 3  SimpleUnderlayNetwork.globalObserver.globalStatistics  delayed_acks  ETV
vector 4  SimpleUnderlayNetwork.globalObserver.globalStatistics  "GlobalNodeList: Number of nodes"  ETV
vector 5  SimpleUnderlayNetwork.globalObserver.globalStatistics  "GlobalNodeList: Number of bootstrapped malicious nodes"  ETV
1	334488156	6008	2438
1	334543916	6009	2067
1	334599698	6010	2279
1	334655435	6011	2120
1	334711229	6012	2332
1	334766949	6013	2385
1	334822667	6014	1961
1	334878497	6015	2438
1	334934176	6016	1802
1	334989916	6017	2067
1	335045692	6018	2332
1	335101479	6019	2544
1	335157261	6020	2279
1	335212997	6021	1802
1	335268745	6022	2120
1	335324418	6023	1643
1	335380158	6024	2226
1	335435947	6025	2279
1	335491702	6026	2279
1	335547417	6027	1961
1	335603261	6028	2226
1	335658941	6029	2226
1	335714694	6030	2332
1	335770378	6031	2014
1	335826239	6032	2756
1	335881913	6033	2067
1	335937745	6034	1749
1	335993383	6035	1961
1	336049217	6036	1855
1	336104960	6037	2279
1	336160671	6038	1802
1	336216464	6039	2332
1	336272221	6040	2014
1	336327957	6041	2597
1	336383664	6042	1855
1	336439483	6043	2014
1	336495255	6044	2279
1	336550863	6045	2544
1	336606683	6046	1855
1	336662487	6047	2332
1	336718178	6048	2120
1	336773920	6049	1855
1	336829686	6050	2173
1	336885371	6051	2226
1	336941159	6052	2332
1	336996844	6053	1961
1	337052708	6054	1802
1	337108514	6055	2279
1	337164254	6056	2173
1	337219939	6057	1590
1	337275610	6058	1696
1	337331313	6059	2226
1	337387144	6060	2491
1	337442896	6061	2544
1	337498651	6062	2438
1	337554388	6063	1802
1	337610102	6064	2173
1	337665911	6065	1908
1	337721603	6066	2438
1	337777358	6067	1961
1	337833088	6068	2332
1	337888961	6069	1855
1	337944645	6070	2014
1	338000407	6071	2279
1	338056124	6072	2173
1	338111903	6073	2491
1	338167650	6074	2491
1	338223394	6075	1961
1	338279184	6076	2862
1	338334875	6077	1696
1	338390697	6078	1802
1	338446343	6079	2120
1	338502107	6080	2385
1	338557918	6081	2756
1	338613691	6082	2279
1	338669429	6083	2597
1	338725246	6084	2438
1	338780988	6085	1696
1	338836584	6086	2067
1	338892481	6087	2173
1	338948102	6088	1855
1	339004002	6089	2703
1	339059773	6090	2173
1	339115435	6091	2120
1	339171209	6092	1961
1	339226884	6093	1643
1	339282644	6094	1855
1	339338380	6095	2332
1	339394172	6096	2385
1	339449958	6097	2703
1	339505660	6098	2332
1	339561486	6099	1802
1	339617254	6100	2332
1	339672955	6101	1961
1	339728590	6102	2703
1	339784403	6103	1696
1	339840222	6104	1961
1	339895907	6105	2332
1	339951657	6106	1590
1	340007452	6107	2067
1	340063221	6108	1855
1	340118897	6109	2067
1	340174678	6110	2014
1	340230407	6111	2332
1	340286245	6112	1855
1	340341881	6113	2491
1	340397691	6114	2279
1	340453429	6115	1961
1	340509088	6116	2173
1	340564932	6117	1378
1	340620625	6118	2544
1	340676409	6119	2067
1	340732134	6120	1802
1	340787987	6121	2332
1	340843666	6122	2491
1	340899394	6123	2332
1	340955142	6124	1590
1	341010786	6125	1643
1	341066618	6126	2279
1	341122328	6127	1908
1	341178065	6128	1272
1	341233858	6129	2544
1	341289585	6130	1908
1	341345316	6131	2226
1	341401073	6132	2491
1	341456977	6133	2226
1	341512526	6134	1749
1	341568373	6135	1908
1	341624120	6136	2385
1	341679893	6137	1643
1	341735628	6138	2438
1	341791323	6139	2014
1	341847017	6140	2173
1	341902810	6141	2279
1	341958601	6142	2067
1	342014304	6143	1961
1	342070136	6144	2544
1	342125834	6145	2279
1	342181652	6146	2385
1	342237338	6147	2120
1	342293075	6148	1749
1	342348851	6149	1802
1	342404594	6150	2173
1	342460305	6151	2491
1	342516139	6152	1961
1	342571866	6153	2703
1	342627570	6154	2438
1	342683389	6155	1908
1	342739083	6156	1855
1	342794825	6157	2120
1	342850571	6158	2438
1	342906327	6159	2703
1	342962125	6160	2120
1	343017811	6161	2120
1	343073602	6162	2014
1	343129368	6163	2279
1	343185062	6164	2385
1	343240822	6165	2173
1	343296597	6166	2226
1	343352303	6167	1908
1	343408211	6168	1802
1	343463804	6169	1749
1	343519622	6170	1378
1	343575343	6171	1590
1	343631088	6172	2279
1	343686767	6173	2120
1	343742643	6174	2120
1	343798306	6175	2226
1	343854089	6176	2067
1	343909759	6177	2438
1	343965506	6178	1643
1	344021335	6179	2173
1	344077055	6180	1749
1	344132811	6181	1802
1	344188448	6182	1961
1	344244258	6183	2014
1	344300101	6184	2173
1	344355662	6185	1855
1	344411511	6186	2120
1	344467220	6187	2279
1	344523056	6188	2226
1	344578877	6189	2014
1	344634485	6190	1431
1	344690300	6191	2173
1	344746020	6192	1643
1	344801735	6193	2756
1	344857526	6194	2438
1	344913355	6195	2226
1	344969069	6196	2279
1	345024755	6197	2067
1	345080538	6198	2703
1	345136316	6199	2279
1	345192002	6200	2279
1	345247787	6201	2067
1	345303555	6202	2438
1	345359225	6203	2279
1	345415048	6204	3339
1	345470823	6205	1855
1	345526557	6206	2014
1	345582346	6207	2067
1	345638099	6208	1855
1	345693770	6209	1590
1	345749605	6210	2014
1	345805302	6211	1908
1	345860953	6212	2438
1	345916799	6213	2120
1	345972516	6214	2014
1	346028301	6215	2597
1	346083992	6216	2226
1	346139825	6217	2014
1	346195466	6218	1749
1	346251275	6219	2491
1	346306997	6220	2120
1	346362855	6221	1855
1	346418441	6222	1749
1	346474257	6223	2544
1	346530021	6224	2120
1	346585767	6225	2067
1	346641480	6226	2173
1	346697269	6227	1961
1	346753037	6228	2014
1	346808780	6229	2173
1	346864446	6230	1484
1	346920225	6231	2226
1	346976002	6232	2385
1	347031756	6233	1908
1	347087572	6234	2438
1	347143270	6235	1696
1	347198946	6236	1908
1	347254674	6237	2279
1	347310514	6238	2703
1	347366237	6239	1484
1	347421868	6240	2438
1	347477680	6241	2650
1	347533438	6242	1537
1	347589209	6243	2067
1	347644980	6244	1961
1	347700693	6245	1855
1	347756512	6246	2491
1	347812262	6247	1802
1	347867984	6248	1855
1	347923691	6249	1537
1	347979450	6250	2385
1	348035149	6251	2279
1	348090898	6252	2438
1	348146841	6253	2332
1	348202390	6254	2067
1	348258222	6255	1908
1	348313887	6256	2756
1	348369745	6257	1537
1	348425446	6258	2173
1	348481206	6259	2014
1	348536934	6260	2279
1	348592667	6261	2173
1	348648442	6262	1855
1	348704255	6263	2279
1	348759895	6264	2226
1	348815746	6265	1802
1	348871423	6266	2332
1	348927290	6267	2544
1	348982959	6268	2279
1	349038708	6269	1643
1	349094489	6270	2014
1	349150200	6271	1855
1	349205894	6272	1643
1	349261657	6273	1908
1	349317412	6274	2173
1	349373185	6275	1908
1	349428901	6276	1855
1	349484638	6277	1643
1	349540411	6278	1696
1	349596102	6279	1908
1	349651909	6280	2279
1	349707605	6281	1908
1	349763356	6282	2385
1	349819143	6283	2597
1	349874775	6284	2385
1	349930680	6285	2173
1	349986447	6286	2385
1	350042100	6287	2279
1	350097892	6288	2014
1	350153639	6289	2385
1	350209339	6290	2756
1	350265230	6291	2014
1	350320819	6292	1802
1	350376610	6293	2014
1	350432350	6294	2120
1	350488194	6295	1855
1	350543880	6296	1431
1	350599664	6297	2385
1	350655377	6298	2120
1	350711139	6299	2120
1	350766854	6300	2014
1	350822634	6301	1961
1	350878418	6302	1484
1	350934175	6303	2597
1	350989844	6304	2014
1	351045545	6305	1537
1	351101439	6306	1590
1	351157148	6307	1325
1	351212855	6308	2226
1	351268586	6309	3021
1	351324330	6310	2385
1	351380151	6311	2862
1	351435826	6312	1855
1	351491554	6313	1908
1	351547331	6314	2226
1	351603092	6315	1749
1	351658830	6316	2385
1	351714561	6317	2226
1	351770364	6318	2014
1	351826098	6319	2173
1	351881876	6320	1484
1	351937608	6321	2385
1	351993348	6322	2014
1	352049053	6323	2226
1	352104821	6324	1961
1	352160564	6325	2226
1	352216291	6326	1643
1	352272063	6327	2226
1	352327838	6328	2067
1	352383556	6329	2279
1	352439354	6330	2544
1	352495078	6331	2438
1	352550857	6332	1749
1	352606632	6333	1484
1	352662285	6334	2226
1	352718060	6335	2544
1	352773909	6336	2120
1	352829610	6337	2226
1	352885286	6338	2120
1	352941098	6339	2067
1	352996875	6340	2226
1	353052489	6341	2491
1	353108356	6342	2332
1	353164047	6343	2067
1	353219777	6344	2438
1	353275587	6345	2014
1	353331345	6346	2332
1	353387083	6347	2279
1	353442816	6348	1537
1	353498655	6349	1537
1	353554318	6350	2385
1	353610069	6351	2014
1	353665860	6352	2067
1	353721630	6353	2544
1	353777351	6354	2173
1	353833025	6355	2226
1	353888753	6356	1908
1	353944567	6357	2120
1	354000290	6358	1219
1	354056018	6359	1749
1	354111761	6360	2491
1	354167600	6361	1643
1	354223254	6362	2226
1	354279030	6363	1537
1	354334800	6364	2279
1	354390494	6365	2067
1	354446292	6366	1802
1	354502023	6367	2703
1	354557740	6368	2279
1	354613542	6369	2226
1	354669291	6370	2332
1	354724976	6371	2173
1	354780800	6372	2756
1	354836504	6373	2067
1	354892294	6374	2809
1	354948073	6375	2279
1	355003788	6376	2173
1	355059433	6377	1855
1	355115331	6378	2597
1	355171066	6379	2491
1	355226796	6380	2226
1	355282551	6381	1643
1	355338310	6382	1749
1	355394033	6383	2332
1	355449862	6384	2332
1	355505543	6385	1855
1	355561198	6386	2067
1	355617056	6387	1643
1	355672685	6388	2279
1	355728510	6389	2597
1	355784222	6390	1643
1	355840042	6391	1590
1	355895677	6392	2014
1	355951563	6393	2120
1	356007264	6394	2279
1	356062986	6395	1802
1	356118727	6396	2173
1	356174495	6397	1696
1	356230333	6398	2597
1	356286020	6399	1908
1	356341825	6400	2067
1	356397533	6401	2756
1	356453319	6402	2067
1	356508968	6403	2385
1	356564740	6404	1908
1	356620581	6405	1908
1	356676126	6406	1802
1	356731938	6407	2173
1	356787734	6408	1855
1	356843392	6409	2067
1	356899290	6410	1802
1	356954968	6411	2226
1	357010799	6412	2491
1	357066437	6413	1961
1	357122265	6414	1590
1	357178076	6415	2491
1	357233700	6416	1961
1	357289556	6417	2067
1	357345271	6418	2491
1	357401002	6419	2438
1	357456766	6420	1696
1	357512471	6421	2067
1	357568154	6422	2332
1	357623978	6423	2279
1	357679782	6424	1961
1	357735465	6425	1855
1	357791298	6426	1961
1	357846987	6427	3074
1	357902742	6428	1908
1	357958517	6429	2279
1	358014256	6430	2491
1	358069977	6431	1961
1	358125676	6432	2067
1	358181542	6433	2173
1	358237337	6434	2279
1	358292947	6435	2067
1	358348649	6436	2120
1	358404490	6437	1802
1	358460252	6438	1802
1	358515976	6439	1643
1	358571654	6440	2014
1	358627462	6441	1908
1	358683254	6442	2332
1	358738939	6443	2014
1	358794732	6444	1961
1	358850527	6445	2014
1	358906235	6446	1908
1	358962038	6447	1855
1	359017696	6448	2120
1	359073396	6449	2226
1	359129168	6450	2332
1	359184862	6451	1802
1	359240645	6452	2703
1	359296421	6453	2173
1	359352166	6454	1484
1	359407892	6455	1696
1	359463736	6456	2756
1	359519412	6457	1908
1	359575188	6458	1908
1	359630912	6459	2597
1	359686767	6460	2385
1	359742350	6461	2067
1	359798140	6462	1908
1	359853980	6463	2067
1	359909713	6464	1908
1	359965438	6465	2385
1	360021147	6466	2385
1	360076926	6467	1908
1	360132678	6468	1961
1	360188501	6469	2544
1	360244180	6470	1961
1	360299934	6471	2014
1	360355680	6472	1855
1	360411428	6473	2650
1	360467185	6474	2014
1	360522930	6475	2279
1	360578632	6476	1908
1	360634463	6477	1431
1	360690141	6478	2014
1	360745835	6479	1908
1	360801622	6480	1961
1	360857357	6481	1802
1	360913084	6482	1802
1	360968882	6483	2067
1	361024648	6484	2332
1	361080370	6485	2544
1	361136191	6486	1908
1	361191884	6487	2279
1	361247618	6488	1908
1	361303369	6489	2067
1	361359122	6490	2226
1	361414759	6491	1855
1	361470488	6492	1484
1	361526334	6493	2226
1	361582177	6494	1696
1	361637866	6495	1855
1	361693603	6496	2332
1	361749298	6497	2385
1	361805125	6498	2014
1	361860868	6499	2173
1	361916581	6500	2279
1	361972287	6501	1908
1	362028018	6502	2067
1	362083800	6503	1802
1	362139547	6504	2703
1	362195320	6505	2120
1	362251077	6506	2385
1	362306888	6507	2226
1	362362523	6508	1855
1	362418285	6509	1908
1	362474080	6510	2120
1	362529834	6511	954
1	362585559	6512	2067
1	362641409	6513	1855
1	362697107	6514	2279
1	362752809	6515	1961
1	362808545	6516	1908
1	362864279	6517	2014
1	362920093	6518	1749
1	362975750	6519	2067
1	363031570	6520	2279
1	363087246	6521	1908
1	363143109	6522	1855
1	363198797	6523	1802
1	363254513	6524	1855
1	363310220	6525	2120
1	363365989	6526	2067
1	363421723	6527	2544
1	363477475	6528	1484
1	363533230	6529	1961
1	363588879	6530	2438
1	363644719	6531	1961
1	363700488	6532	1537
1	363756188	6533	2279
1	363812018	6534	1749
1	363867713	6535	2120
1	363923508	6536	2438
1	363979215	6537	2120
1	364035025	6538	1696
1	364090733	6539	2597
1	364146536	6540	2385
1	364202199	6541	2279
1	364257964	6542	2332
1	364313731	6543	2226
1	364369543	6544	1961
1	364425169	6545	2491
1	364481015	6546	2279
1	364536716	6547	1696
1	364592449	6548	3339
1	364648307	6549	2226
1	364704013	6550	1855
1	364759715	6551	2332
1	364815440	6552	1325
1	364871222	6553	2120
1	364926971	6554	2491
1	364982733	6555	2173
1	365038511	6556	2014
1	365094215	6557	2385
1	365150078	6558	2279
1	365205693	6559	2067
1	365261436	6560	1643
1	365317220	6561	1431
1	365372961	6562	2067
1	365428673	6563	1908
1	365484372	6564	1166
1	365540168	6565	2332
1	365595882	6566	2491
1	365651715	6567	2067
1	365707464	6568	2279
1	365763240	6569	2332
1	365818853	6570	2226
1	365874703	6571	2067
1	365930395	6572	2120
1	365986172	6573	2279
1	366041859	6574	2067
1	366097686	6575	1802
1	366153358	6576	2173
1	366209210	6577	2438
1	366264958	6578	2226
1	366320685	6579	2120
1	366376399	6580	1908
1	366432187	6581	2279
1	366487966	6582	1802
1	366543697	6583	1696
1	366599395	6584	1908
1	366655189	6585	2332
1	366710946	6586	2120
1	366766617	6587	2014
1	366822441	6588	2385
1	366878164	6589	1802
1	366933907	6590	2438
1	366989629	6591	1802
1	367045329	6592	2173
1	367101124	6593	1643
1	367156850	6594	2120
1	367212634	6595	1802
1	367268479	6596	2067
1	367324153	6597	2120
1	367379886	6598	1961
1	367435616	6599	1908
1	367491363	6600	1908
1	367547155	6601	1855
1	367602820	6602	2173
1	367658621	6603	1696
1	367714257	6604	1802
1	367770086	6605	1696
1	367825764	6606	1908
1	367881576	6607	2120
1	367937370	6608	2120
1	367993065	6609	2120
1	368048838	6610	2385
1	368104564	6611	1431
1	368160324	6612	1855
1	368216034	6613	1590
1	368271795	6614	2279
1	368327549	6615	2385
1	368383323	6616	2438
1	368439025	6617	1749
1	368494891	6618	2597
1	368550550	6619	2120
1	368606293	6620	1961
1	368662110	6621	1590
1	368717820	6622	1908
1	368773440	6623	1325
1	368829201	6624	2332
1	368885020	6625	2385
1	368940805	6626	1908
1	368996543	6627	1855
1	369052298	6628	2014
1	369108045	6629	2014
1	369163808	6630	2173
1	369219562	6631	2544
1	369275328	6632	1590
1	369330965	6633	1855
1	369386801	6634	2332
1	369442552	6635	1961
1	369498279	6636	1961
1	369554023	6637	1961
1	369609723	6638	1590
1	369665537	6639	1908
1	369721213	6640	2597
1	369777022	6641	2385
1	369832796	6642	2067
1	369888470	6643	2491
1	369944211	6644	2332
1	370000023	6645	2173
1	370055780	6646	1855
1	370111519	6647	2279
1	370167243	6648	2703
1	370222996	6649	1961
1	370278755	6650	2385
1	370334547	6651	2120
1	370390279	6652	1802
1	370446029	6653	2226
1	370501769	6654	2226
1	370557467	6655	1908
1	370613225	6656	1643
1	370669041	6657	1802
1	370724746	6658	2014
1	370780437	6659	2226
1	370836265	6660	2067
1	370891973	6661	2120
1	370947688	6662	2703
1	371003418	6663	2332
1	371059276	6664	2385
1	371115024	6665	2385
1	371170831	6666	1272
1	371226619	6667	2385
1	371282259	6668	1961
1	371337898	6669	2067
1	371393820	6670	2491
1	371449502	6671	2173
1	371505247	6672	1431
1	371560943	6673	1696
1	371616677	6674	2226
1	371672441	6675	1696
1	371728189	6676	2173
1	371783990	6677	1537
1	371839781	6678	1961
1	371895375	6679	2120
1	371951167	6680	1802
1	372006853	6681	1802
1	372062589	6682	2332
1	372118452	6683	2173
1	372174191	6684	2491
1	372229936	6685	2014
1	372285622	6686	1749
1	372341410	6687	2173
1	372397130	6688	2544
1	372452844	6689	2014
1	372508674	6690	1961
1	372564423	6691	2332
1	372620166	6692	2120
1	372675885	6693	2014
1	372731632	6694	1749
1	372787364	6695	1908
1	372843208	6696	1961
1	372898908	6697	1590
1	372954697	6698	2332
1	373010385	6699	2120
1	373066127	6700	1802
1	373121901	6701	2226
1	373177686	6702	1749
1	373233357	6703	1802
1	373289084	6704	2067
1	373344916	6705	1961
1	373400583	6706	2173
1	373456348	6707	1696
1	373512202	6708	1961
1	373567893	6709	2332
1	373623585	6710	2014
1	373679292	6711	1537
1	373735105	6712	1749
1	373790889	6713	1855
1	373846616	6714	2385
1	373902431	6715	1855
1	373958041	6716	2226
1	374013845	6717	2226
1	374069557	6718	1431
1	374125263	6719	2014
1	374181202	6720	2067
1	374236846	6721	2226
1	374292528	6722	1590
1	374348291	6723	2332
1	374403986	6724	2491
1	374459758	6725	1961
1	374515618	6726	1855
1	374571314	6727	2438
1	374627054	6728	2173
1	374682875	6729	2385
1	374738586	6730	1908
1	374794277	6731	2173
1	374850009	6732	1855
1	374905762	6733	2491
1	374961448	6734	1961
1	375017431	6735	3074
1	375073083	6736	1643
1	375128785	6737	2491
1	375184567	6738	1643
1	375240315	6739	2279
1	375295963	6740	1855
1	375351775	6741	2385
1	375407473	6742	2014
1	375463347	6743	2279
1	375519090	6744	2067
1	375574817	6745	1802
1	375630593	6746	1696
1	375686255	6747	1908
1	375741994	6748	2173
1	375797788	6749	2491
1	375853585	6750	1961
1	375909282	6751	1484
1	375965016	6752	2279
1	376020737	6753	2067
1	376076484	6754	1908
1	376132182	6755	1961
1	376188044	6756	2332
1	376243711	6757	2173
1	376299519	6758	2173
1	376355289	6759	1749
1	376411020	6760	2067
1	376466739	6761	2279
1	376522571	6762	2968
1	376578292	6763	1431
1	376634001	6764	1855
1	376689782	6765	2968
1	376745514	6766	2067
1	376801216	6767	1908
1	376857041	6768	1696
1	376912730	6769	2014
1	376968490	6770	2226
1	377024261	6771	1855
1	377079965	6772	2279
1	377135702	6773	1749
1	377191515	6774	2332
1	377247243	6775	2491
1	377302884	6776	2226
1	377358720	6777	1590
1	377414533	6778	2544
1	377470194	6779	2173
1	377525932	6780	2597
1	377581789	6781	2491
1	377637464	6782	2491
1	377693245	6783	1484
1	377749009	6784	1749
1	377804694	6785	1484
1	377860478	6786	1802
1	377916218	6787	2120
1	377971871	6788	1696
1	378027696	6789	2014
1	378083430	6790	2014
1	378139135	6791	2385
1	378194912	6792	1696
1	378250720	6793	1696
1	378306413	6794	2438
1	378362194	6795	2173
1	378417918	6796	1855
1	378473617	6797	1855
1	378529364	6798	1537
1	378585228	6799	2703
1	378640893	6800	1908
1	378696636	6801	1855
1	378752300	6802	2438
1	378808163	6803	2544
1	378863980	6804	2332
1	378919719	6805	2438
1	378975353	6806	1590
1	379031290	6807	2120
1	379086973	6808	1537
1	379142615	6809	2491
1	379198449	6810	2279
1	379254228	6811	1802
1	379309853	6812	1802
1	379365668	6813	2279
1	379421395	6814	1484
1	379477114	6815	2014
1	379532906	6816	2014
1	379588616	6817	1961
1	379644366	6818	2332
1	379700156	6819	1855
1	379755879	6820	2279
1	379811568	6821	1378
1	379867352	6822	2120
1	379923116	6823	1802
1	379978928	6824	2332
1	380034603	6825	2226
1	380090380	6826	2226
1	380146079	6827	2014
1	380201881	6828	1855
1	380257557	6829	2279
1	380313337	6830	2279
1	380369168	6831	2279
1	380424866	6832	1908
1	380480578	6833	2650
1	380536369	6834	2597
1	380592093	6835	1855
1	380647859	6836	2120
1	380703635	6837	1802
1	380759376	6838	2067
1	380815068	6839	2438
1	380870865	6840	2544
1	380926563	6841	1908
1	380982320	6842	2173
1	381038122	6843	1855
1	381093927	6844	1749
1	381149527	6845	1908
1	381205331	6846	1961
1	381261037	6847	1908
1	381316790	6848	1961
1	381372619	6849	2385
1	381428332	6850	2067
1	381483960	6851	2067
1	381539827	6852	1802
1	381595525	6853	1908
1	381651195	6854	1961
1	381707039	6855	1908
1	381762832	6856	2650
1	381818496	6857	2173
1	381874249	6858	1484
1	381930094	6859	2544
1	381985761	6860	2650
1	382041547	6861	1855
1	382097347	6862	2120
1	382152950	6863	1855
1	382208817	6864	2491
1	382264496	6865	1643
1	382320238	6866	1749
1	382376017	6867	2491
1	382431836	6868	2067
1	382487554	6869	1802
1	382543254	6870	2332
1	382599019	6871	2173
1	382654773	6872	1537
1	382710632	6873	1855
1	382766228	6874	1749
1	382821933	6875	1908
1	382877748	6876	2067
1	382933515	6877	2544
1	382989221	6878	2067
1	383045023	6879	1537
1	383100824	6880	2279
1	383156407	6881	1908
1	383212324	6882	1802
1	383268003	6883	1802
1	383323719	6884	2385
1	383379483	6885	2173
1	383435182	6886	1908
1	383491012	6887	1802
1	383546788	6888	2597
1	383602515	6889	1961
1	383658230	6890	2279
1	383713978	6891	2226
1	383769711	6892	1749
1	383825514	6893	2014
1	383881176	6894	2120
1	383936835	6895	2279
1	383992730	6896	2067
1	384048488	6897	2226
1	384104126	6898	2544
1	384159967	6899	2067
1	384215758	6900	2279
1	384271408	6901	2067
1	384327217	6902	1590
1	384382982	6903	2014
1	384438699	6904	1643
1	384494401	6905	2650
1	384550295	6906	1484
1	384605946	6907	2279
1	384661720	6908	1484
1	384717401	6909	2544
1	384773196	6910	2491
1	384828941	6911	2067
1	384884763	6912	1908
1	384940395	6913	2332
1	384996133	6914	2438
1	385051841	6915	2385
1	385107648	6916	2067
1	385163399	6917	2279
1	385219229	6918	2014
1	385274908	6919	1749
1	385330672	6920	2385
1	385386514	6921	2279
1	385442171	6922	2385
1	385497942	6923	1802
1	385553677	6924	2438
1	385609382	6925	1696
1	385665244	6926	2279
1	385720933	6927	1643
1	385776707	6928	2226
1	385832469	6929	2067
1	385888122	6930	1749
1	385943975	6931	2809
1	385999641	6932	1378
1	386055384	6933	1590
1	386111105	6934	2120
1	386166912	6935	2173
1	386222690	6936	2226
1	386278339	6937	1908
1	386334176	6938	2173
1	386389845	6939	1431
1	386445747	6940	1961
1	386501377	6941	1855
1	386557076	6942	2385
1	386612872	6943	2120
1	386668573	6944	1590
1	386724403	6945	1961
1	386780114	6946	2173
1	386835822	6947	2279
1	386891614	6948	2226
1	386947374	6949	2120
1	387003135	6950	2226
1	387058911	6951	2226
1	387114631	6952	1643
1	387170344	6953	2226
1	387226212	6954	2226
1	387281872	6955	1802
1	387337614	6956	2385
1	387393302	6957	2173
1	387449185	6958	2120
1	387504856	6959	2173
1	387560627	6960	2120
1	387616406	6961	2014
1	387671969	6962	2173
1	387727909	6963	2014
1	387783637	6964	1643
1	387839410	6965	2438
1	387895093	6966	1749
1	387950802	6967	1855
1	388006566	6968	1961
1	388062351	6969	1908
1	388117991	6970	1484
1	388173775	6971	2279
1	388229574	6972	2014
1	388285375	6973	2067
1	388341107	6974	1802
1	388396753	6975	2279
1	388452559	6976	1219
1	388508267	6977	1961
1	388564062	6978	2332
1	388619800	6979	2067
1	388675475	6980	1855
1	388731316	6981	1696
1	388787039	6982	2173
1	388842742	6983	2385
1	388898515	6984	1590
1	388954261	6985	1961
1	389009835	6986	2120
1	389065801	6987	2332
1	389121575	6988	2067
1	389177273	6989	2279
1	389233018	6990	2385
1	389288753	6991	1802
1	389344494	6992	2332
1	389400216	6993	1961
1	389455979	6994	1590
1	389511732	6995	2014
1	389567422	6996	1908
1	389623239	6997	2279
1	389679029	6998	2650
1	389734755	6999	2014
1	389790449	7000	1908
1	389846165	7001	1325
1	389901955	7002	2385
1	389957768	7003	2173
1	390013504	7004	2067
1	390069238	7005	1696
1	390124885	7006	1643
1	390180786	7007	2279
1	390236497	7008	1961
1	390292236	7009	1643
1	390347884	7010	1537
1	390403607	7011	2067
1	390459466	7012	1749
1	390515079	7013	2438
1	390570965	7014	1590
1	390626633	7015	2438
1	390682412	7016	2067
1	390738144	7017	1696
1	390793738	7018	1802
1	390849605	7019	1696
1	390905450	7020	2226
1	390961180	7021	1219
1	391016935	7022	1908
1	391072653	7023	2491
1	391128332	7024	1961
1	391184077	7025	1908
1	391239820	7026	2226
1	391295632	7027	1908
1	391351307	7028	2279
1	391407138	7029	1961
1	391462888	7030	1908
1	391518614	7031	2385
1	391574373	7032	2279
1	391630116	7033	2120
1	391685839	7034	1855
1	391741590	7035	2120
1	391797305	7036	2120
1	391853047	7037	2067
1	391908790	7038	2491
1	391964670	7039	2279
1	392020251	7040	1537
1	392076088	7041	2491
1	392131857	7042	2067
1	392187557	7043	2014
1	392243405	7044	1802
1	392299080	7045	1908
1	392354854	7046	1749
1	392410685	7047	2491
1	392466383	7048	2173
1	392522046	7049	2491
1	392577842	7050	3074
1	392633631	7051	2014
1	392689279	7052	2279
1	392745110	7053	2067
1	392800828	7054	1696
1	392856421	7055	2120
1	392912377	7056	2226
1	392968095	7057	2279
1	393023830	7058	2544
1	393079621	7059	1590
1	393135333	7060	2279
1	393191000	7061	1749
1	393246863	7062	2226
1	393302576	7063	2438
1	393358347	7064	2067
1	393414076	7065	1908
1	393469826	7066	2385
1	393525547	7067	1855
1	393581344	7068	2014
1	393637049	7069	1855
1	393692830	7070	1749
1	393748562	7071	2491
1	393804273	7072	2067
1	393860018	7073	1643
1	393915823	7074	2067
1	393971569	7075	2332
1	394027319	7076	1855
1	394083040	7077	2438
1	394138781	7078	2597
1	394194620	7079	1961
1	394250340	7080	1219
1	394306025	7081	2332
1	394361701	7082	2650
1	394417530	7083	1802
1	394473360	7084	2279
1	394528919	7085	1643
1	394584752	7086	1696
1	394640582	7087	2597
1	394696284	7088	1855
1	394751991	7089	2067
1	394807779	7090	2120
1	394863533	7091	2226
1	394919201	7092	2703
1	394975095	7093	2597
1	395030663	7094	1749
1	395086608	7095	2968
1	395142362	7096	1643
1	395198114	7097	1643
1	395253763	7098	2067
1	395309502	7099	2173
1	395365241	7100	1802
1	395420988	7101	2173
1	395476770	7102	2173
1	395532464	7103	2385
1	395588332	7104	1855
1	395644009	7105	2385
1	395699827	7106	2226
1	395755524	7107	2173
1	395811308	7108	1855
1	395867027	7109	2756
1	395922835	7110	2226
1	395978553	7111	2067
1	396034276	7112	2014
1	396090021	7113	1537
1	396145720	7114	1643
1	396201528	7115	2173
1	396257171	7116	2014
1	396312901	7117	2703
1	396368800	7118	2332
1	396424452	7119	2173
1	396480256	7120	2650
1	396536059	7121	1749
1	396591797	7122	1749
1	396647467	7123	1908
1	396703228	7124	1855
1	396759028	7125	2332
1	396814779	7126	2279
1	396870452	7127	1855
1	396926293	7128	2279
1	396982015	7129	1696
1	397037724	7130	2385
1	397093420	7131	1855
1	397149293	7132	2544
1	397204975	7133	1908
1	397260769	7134	1378
1	397316495	7135	1749
1	397372198	7136	2597
1	397428058	7137	1908
1	397483648	7138	2120
1	397539524	7139	2597
1	397595273	7140	2597
1	397650940	7141	1908
1	397706694	7142	1908
1	397762515	7143	1643
1	397818192	7144	2120
1	397873974	7145	2173
1	397929711	7146	2650
1	397985492	7147	1484
1	398041172	7148	2014
1	398096998	7149	2173
1	398152719	7150	2173
1	398208466	7151	2120
1	398264193	7152	2279
1	398319939	7153	1802
1	398375696	7154	2332
1	398431338	7155	2385
1	398487198	7156	1908
1	398542847	7157	2279
1	398598742	7158	2067
1	398654426	7159	2385
1	398710246	7160	1802
1	398765975	7161	2173
1	398821689	7162	2120
1	398877455	7163	1855
1	398933124	7164	1696
1	398988918	7165	2067
1	399044700	7166	1749
1	399100445	7167	1855
1	399156140	7168	2067
1	399211899	7169	1060
1	399267632	7170	2544
1	399323458	7171	2014
1	399379154	7172	2173
1	399434871	7173	2120
1	399490588	7174	2491
1	399546453	7175	2120
1	399602222	7176	2650
1	399657871	7177	2014
1	399713613	7178	2756
1	399769387	7179	2014
1	399825164	7180	2014
1	399880879	7181	2862
1	399936591	7182	2279
1	399992461	7183	2385
1	400048140	7184	2279
1	400103857	7185	1855
1	400159642	7186	2173
1	400215418	7187	2226
1	400271168	7188	1855
1	400327015	7189	2385
1	400382712	7190	2650
1	400438408	7191	1961
1	400494260	7192	1378
1	400549845	7193	1961
1	400605628	7194	2226
1	400661455	7195	2173
1	400717092	7196	1961
1	400772978	7197	2067
1	400828657	7198	2014
1	400884356	7199	2491
1	400940129	7200	2067
1	400995964	7201	1802
1	401051654	7202	2703
1	401107475	7203	1749
1	401163138	7204	2385
1	401218880	7205	2120
1	401274651	7206	1802
1	401330364	7207	1643
1	401386106	7208	1431
1	401441976	7209	2809
1	401497641	7210	1961
1	401553393	7211	2067
1	401609146	7212	2438
1	401664893	7213	1590
1	401720617	7214	2544
1	401776374	7215	2226
1	401832093	7216	2067
1	401887756	7217	2385
1	401943632	7218	1802
1	401999444	7219	1855
1	402055043	7220	1802
1	402110896	7221	1696
1	402166585	7222	2385
1	402222315	7223	2544
1	402278185	7224	1749
1	402333876	7225	2226
1	402389593	7226	1908
1	402445358	7227	2756
1	402501146	7228	1749
1	402556857	7229	2332
1	402612640	7230	1749
1	402668401	7231	2332
1	402724130	7232	2279
1	402779804	7233	2491
1	402835666	7234	2597
1	402891342	7235	1590
1	402947055	7236	1749
1	403002868	7237	2438
1	403058582	7238	2862
1	403114349	7239	2173
1	403170054	7240	1749
1	403225752	7241	2544
1	403281676	7242	1643
1	403337343	7243	2279
1	403393031	7244	2173
1	403448843	7245	2014
1	403504581	7246	2438
1	403560396	7247	1802
1	403616091	7248	2067
1	403671902	7249	2014
1	403727531	7250	1802
1	403783467	7251	2438
1	403839050	7252	1908
1	403894801	7253	1961
1	403950642	7254	1908
1	404006316	7255	2067
1	404062052	7256	2067
1	404117790	7257	1590
1	404173562	7258	2014
1	404229254	7259	1908
1	404285051	7260	1961
1	404340870	7261	2491
1	404396488	7262	2491
1	404452362	7263	2014
1	404508053	7264	1643
1	404563784	7265	2385
1	404619512	7266	2226
1	404675269	7267	1590
1	404731076	7268	2809