version 2
run BasicCC-3-20100906-23:23:26-2612
attr configname BasicCC
attr datetime 20100906-23:23:26
attr experiment BasicCC
attr inifile D:/Developement/Oversim2/multic/simulations/omnetpp.ini
attr iterationvars $mpeers=100
attr iterationvars2 "$mpeers=100, $repetition=0"
attr measurement $mpeers=100
attr mpeers 100
attr network oversim.underlay.simpleunderlay.SimpleUnderlayNetwork
attr processid 2612
attr repetition 0
attr replication #0
attr resultdir results
attr runnumber 3
attr seedset 3

vector 1  SimpleUnderlayNetwork.globalObserver.globalStatistics  incoming_bytes  ETV
vector 2  SimpleUnderlayNetwork.globalObserver.globalStatistics  drops  ETV
vector 3  SimpleUnderlayNetwork.globalObserver.globalStatistics  delayed_acks  ETV
vector 4  SimpleUnderlayNetwork.globalObserver.globalStatistics  "GlobalNodeList: Number of nodes"  ETV
vector 5  SimpleUnderlayNetwork.globalObserver.globalStatistics  "GlobalNodeList: Number of bootstrapped malicious nodes"  ETV
1	3345533728	6098	20988
1	3346090761	6099	21783
1	3346648686	6100	22260
1	3347205932	6101	22313
1	3347763465	6102	21783
1	3348321148	6103	21518
1	3348878559	6104	22472
1	3349436081	6105	20776
1	3349993403	6106	22737
1	3350551015	6107	22578
1	3351108797	6108	24221
1	3351666103	6109	23426
1	3352223577	6110	21147
1	3352781122	6111	22525
1	3353338697	6112	23161
1	3353896109	6113	21730
1	3354453730	6114	21624
1	3355011129	6115	22631
1	3355568430	6116	21677
1	3356125993	6117	22260
1	3356683512	6118	22896
1	3357241175	6119	22154
1	3357798681	6120	22101
1	3358356015	6121	21253
1	3358913824	6122	22366
1	3359470756	6123	22843
1	3360028375	6124	22896
1	3360586101	6125	23585
1	3361143404	6126	23744
1	3361701002	6127	22260
1	3362258751	6128	21306
1	3362815930	6129	21677
1	3363373869	6130	22949
1	3363930788	6131	23320
1	3364488574	6132	21677
1	3365046222	6133	23108
1	3365603676	6134	23161
1	3366161351	6135	22684
1	3366718787	6136	21783
1	3367276117	6137	21730
1	3367833770	6138	22737
1	3368391163	6139	22525
1	3368948564	6140	22154
1	3369506146	6141	22737
1	3370063706	6142	23426
1	3370621122	6143	23055
1	3371179006	6144	22949
1	3371736590	6145	23585
1	3372294003	6146	20458
1	3372851208	6147	22313
1	3373408795	6148	20458
1	3373965975	6149	20458
1	3374523666	6150	23002
1	3375081106	6151	21942
1	3375638688	6152	19928
1	3376196288	6153	21200
1	3376753697	6154	21889
1	3377311092	6155	21836
1	3377868282	6156	20776
1	3378425897	6157	22790
1	3378983550	6158	23002
1	3379540817	6159	23267
1	3380098679	6160	22260
1	3380655970	6161	22260
1	3381213685	6162	23426
1	3381770707	6163	21465
1	3382328461	6164	21571
1	3382885864	6165	23214
1	3383443285	6166	22472
1	3384001328	6167	21942
1	3384558876	6168	22101
1	3385116124	6169	22949
1	3385673901	6170	23903
1	3386231236	6171	21889
1	3386788767	6172	23002
1	3387346308	6173	21836
1	3387903524	6174	22260
1	3388461356	6175	23691
1	3389018836	6176	21836
1	3389576188	6177	23108
1	3390133653	6178	20670
1	3390691342	6179	23744
1	3391248754	6180	22843
1	3391806191	6181	20511
1	3392363955	6182	22048
1	3392921161	6183	23479
1	3393478567	6184	22790
1	3394035993	6185	20193
1	3394593837	6186	23479
1	3395150934	6187	22207
1	3395708699	6188	22260
1	3396266257	6189	21889
1	3396823562	6190	22949
1	3397380941	6191	22101
1	3397938602	6192	24433
1	3398496376	6193	21412
1	3399053561	6194	21624
1	3399611212	6195	22207
1	3400168740	6196	22790
1	3400726443	6197	20776
1	3401283623	6198	22737
1	3401841535	6199	23161
1	3402398651	6200	23267
1	3402956394	6201	23903
1	3403513697	6202	24645
1	3404071344	6203	21412
1	3404628953	6204	20352
1	3405186281	6205	21942
1	3405743928	6206	22260
1	3406301345	6207	22949
1	3406858781	6208	20776
1	3407416174	6209	22737
1	3407973522	6210	23532
1	3408531150	6211	22207
1	3409088831	6212	21465
1	3409646194	6213	21624
1	3410203970	6214	19663
1	3410761337	6215	24327
1	3411318566	6216	21677
1	3411876099	6217	25069
1	3412433816	6218	22737
1	3412991154	6219	22313
1	3413548863	6220	23055
1	3414106411	6221	22684
1	3414663674	6222	22048
1	3415221101	6223	20140
1	3415778944	6224	23320
1	3416336238	6225	24115
1	3416893756	6226	23532
1	3417451212	6227	22737
1	3418008863	6228	21783
1	3418566501	6229	22260
1	3419123908	6230	22366
1	3419681397	6231	21624
1	3420238797	6232	21624
1	3420796349	6233	21094
1	3421353788	6234	22578
1	3421911207	6235	22472
1	3422468844	6236	21783
1	3423026296	6237	22525
1	3423583943	6238	23002
1	3424141489	6239	23373
1	3424698732	6240	21942
1	3425256312	6241	21518
1	3425813896	6242	23267
1	3426371480	6243	21783
1	3426928673	6244	22578
1	3427486444	6245	21783
1	3428043934	6246	23797
1	3428601408	6247	21571
1	3429158930	6248	20776
1	3429716447	6249	21200
1	3430273672	6250	22101
1	3430831364	6251	22366
1	3431388510	6252	20829
1	3431946229	6253	20882
1	3432503701	6254	24062
1	3433061090	6255	22949
1	3433618607	6256	22366
1	3434176111	6257	21889
1	3434733787	6258	22578
1	3435291198	6259	22419
1	3435848806	6260	22525
1	3436406346	6261	21147
1	3436963598	6262	20723
1	3437520971	6263	22684
1	3438078815	6264	23002
1	3438636245	6265	21147
1	3439193832	6266	22525
1	3439751208	6267	22260
1	3440308943	6268	23797
1	3440866506	6269	22207
1	3441423577	6270	20935
1	3441981075	6271	22790
1	3442538857	6272	21889
1	3443096335	6273	22313
1	3443653773	6274	21571
1	3444210982	6275	21518
1	3444768812	6276	22790
1	3445326192	6277	21730
1	3445883937	6278	21147
1	3446441132	6279	20776
1	3446998819	6280	21836
1	3447555958	6281	23161
1	3448113778	6282	23638
1	3448671223	6283	25334
1	3449228920	6284	22949
1	3449786287	6285	22790
1	3450343896	6286	21836
1	3450901271	6287	23479
1	3451458748	6288	21836
1	3452016406	6289	23850
1	3452573695	6290	23426
1	3453131392	6291	22684
1	3453688940	6292	23055
1	3454246462	6293	21677
1	3454803942	6294	23744
1	3455361200	6295	20405
1	3455918878	6296	21571
1	3456476304	6297	21465
1	3457033611	6298	21412
1	3457591374	6299	22260
1	3458148787	6300	22737
1	3458706460	6301	23797
1	3459263743	6302	22737
1	3459821401	6303	20829
1	3460378880	6304	24698
1	3460936470	6305	22684
1	3461493844	6306	21730
1	3462051544	6307	23002
1	3462608971	6308	21412
1	3463166323	6309	22631
1	3463724124	6310	21783
1	3464281454	6311	22366
1	3464838815	6312	21253
1	3465396300	6313	22154
1	3465953935	6314	21836
1	3466511339	6315	23797
1	3467068750	6316	22366
1	3467626335	6317	20935
1	3468183712	6318	22737
1	3468741613	6319	24009
1	3469298950	6320	19133
1	3469856171	6321	22154
1	3470413839	6322	23267
1	3470971258	6323	20882
1	3471528727	6324	20670
1	3472086218	6325	23585
1	3472643803	6326	23638
1	3473201349	6327	23267
1	3473759013	6328	21995
1	3474316656	6329	22472
1	3474873703	6330	21041
1	3475431265	6331	24062
1	3475989071	6332	21359
1	3476546124	6333	23320
1	3477104043	6334	23479
1	3477661521	6335	23002
1	3478219045	6336	22101
1	3478776302	6337	22366
1	3479333832	6338	21359
1	3479891592	6339	23002
1	3480448922	6340	21306
1	3481006492	6341	20776
1	3481563862	6342	22790
1	3482121469	6343	21783
1	3482678733	6344	22366
1	3483236140	6345	22048
1	3483793850	6346	21836
1	3484351625	6347	22525
1	3484908778	6348	23691
1	3485466365	6349	21677
1	3486024079	6350	23479
1	3486581055	6351	21306
1	3487138860	6352	22737
1	3487696303	6353	20776
1	3488253760	6354	23585
1	3488811633	6355	22896
1	3489368693	6356	20458
1	3489926162	6357	22525
1	3490483991	6358	20776
1	3491041355	6359	22419
1	3491598740	6360	22207
1	3492156421	6361	24486
1	3492714181	6362	23585
1	3493271375	6363	20882
1	3493828871	6364	23161
1	3494386567	6365	20829
1	3494943826	6366	23850
1	3495501362	6367	23055
1	3496058998	6368	22843
1	3496616533	6369	22631
1	3497174263	6370	21306
1	3497731359	6371	21677
1	3498288904	6372	23320
1	3498846463	6373	22207
1	3499404000	6374	21783
1	3499961594	6375	21942
1	3500519010	6376	20776
1	3501076329	6377	23214
1	3501633837	6378	24115
1	3502191318	6379	22684
1	3502748975	6380	20776
1	3503306443	6381	23797
1	3503863791	6382	20829
1	3504421569	6383	20882
1	3504978929	6384	22313
1	3505536511	6385	22366
1	3506093817	6386	21942
1	3506651225	6387	23161
1	3507209114	6388	21094
1	3507766441	6389	22843
1	3508324254	6390	24115
1	3508881571	6391	22313
1	3509439014	6392	24115
1	3509996379	6393	21942
1	3510553843	6394	20988
1	3511111615	6395	22207
1	3511669043	6396	23426
1	3512226532	6397	24380
1	3512784061	6398	22154
1	3513341482	6399	23108
1	3513899238	6400	23267
1	3514456414	6401	22525
1	3515013840	6402	21412
1	3515571550	6403	20882
1	3516129175	6404	24221
1	3516686488	6405	21942
1	3517244109	6406	22896
1	3517801607	6407	20723
1	3518359171	6408	22949
1	3518916530	6409	21783
1	3519474058	6410	21465
1	3520031705	6411	24221
1	3520589229	6412	22472
1	3521146661	6413	23744
1	3521703983	6414	23850
1	3522261582	6415	20617
1	3522819268	6416	21942
1	3523376509	6417	22207
1	3523934170	6418	22313
1	3524491686	6419	22949
1	3525048924	6420	22684
1	3525606464	6421	20405
1	3526164113	6422	22260
1	3526721859	6423	22366
1	3527279166	6424	22101
1	3527836571	6425	20299
1	3528394204	6426	22472
1	3528951556	6427	21306
1	3529509120	6428	21677
1	3530066323	6429	24380
1	3530624151	6430	23956
1	3531181734	6431	21730
1	3531739150	6432	24115
1	3532296499	6433	23002
1	3532854028	6434	20670
1	3533411531	6435	22313
1	3533969175	6436	23161
1	3534526840	6437	22154
1	3535084018	6438	21306
1	3535641656	6439	21783
1	3536199145	6440	22896
1	3536756511	6441	22790
1	3537314287	6442	22154
1	3537871738	6443	24380
1	3538428710	6444	21306
1	3538986786	6445	22790
1	3539544407	6446	23055
1	3540101526	6447	22843
1	3540659164	6448	23373
1	3541216655	6449	22154
1	3541774185	6450	23903
1	3542331839	6451	23426
1	3542889396	6452	21783
1	3543446459	6453	21730
1	3544004276	6454	21889
1	3544561813	6455	21942
1	3545119049	6456	20935
1	3545676778	6457	20829
1	3546234386	6458	22684
1	3546791921	6459	24592
1	3547349225	6460	22896
1	3547906781	6461	22896
1	3548463941	6462	21783
1	3549021931	6463	23161
1	3549579119	6464	20829
1	3550136658	6465	21942
1	3550694120	6466	23267
1	3551251675	6467	21995
1	3551809354	6468	22472
1	3552366780	6469	23214
1	3552924158	6470	21942
1	3553481709	6471	21147
1	3554039144	6472	22472
1	3554596791	6473	23108
1	3555154458	6474	23267
1	3555711957	6475	21730
1	3556269332	6476	23161
1	3556826574	6477	22313
1	3557384194	6478	21571
1	3557941818	6479	22578
1	3558499352	6480	24062
1	3559057019	6481	22843
1	3559614330	6482	22154
1	3560171932	6483	22737
1	3560729410	6484	20935
1	3561286924	6485	21995
1	3561844417	6486	23638
1	3562401702	6487	22313
1	3562959167	6488	21624
1	3563516709	6489	22684
1	3564074155	6490	22419
1	3564631869	6491	23373
1	3565189459	6492	20776
1	3565746718	6493	22048
1	3566304432	6494	22207
1	3566861812	6495	19822
1	3567419232	6496	21518
1	3567976747	6497	20670
1	3568534077	6498	22101
1	3569091652	6499	20617
1	3569649260	6500	21412
1	3570206801	6501	21094
1	3570764091	6502	22048
1	3571321780	6503	23426
1	3571879176	6504	20299
1	3572436610	6505	22260
1	3572994350	6506	21518
1	3573551629	6507	21889
1	3574109148	6508	21094
1	3574666710	6509	23320
1	3575223965	6510	22737
1	3575781320	6511	21571
1	3576339389	6512	21412
1	3576896547	6513	22949
1	3577454053	6514	19928
1	3578011575	6515	20723
1	3578568714	6516	21094
1	3579126780	6517	22260
1	3579684165	6518	23214
1	3580241728	6519	22101
1	3580799185	6520	23320
1	3581356436	6521	23638
1	3581913911	6522	23055
1	3582471718	6523	22578
1	3583029211	6524	21624
1	3583586695	6525	23479
1	3584143840	6526	20617
1	3584701785	6527	21889
1	3585259095	6528	22949
1	3585816654	6529	22843
1	3586374133	6530	21995
1	3586931889	6531	22366
1	3587489043	6532	22048
1	3588046584	6533	23320
1	3588604331	6534	21942
1	3589161390	6535	21889
1	3589719125	6536	22472
1	3590276666	6537	24115
1	3590834180	6538	22684
1	3591391697	6539	22313
1	3591949199	6540	21730
1	3592506644	6541	22631
1	3593064058	6542	21942
1	3593621711	6543	21094
1	3594179117	6544	19292
1	3594736563	6545	22684
1	3595293879	6546	21677
1	3595851632	6547	23532
1	3596409074	6548	22578
1	3596966512	6549	22790
1	3597524128	6550	22366
1	3598081584	6551	21253
1	3598639232	6552	21677
1	3599196521	6553	20140
1	3599754130	6554	22525
1	3600311640	6555	20829
1	3600868846	6556	21730
1	3601426532	6557	22737
1	3601983974	6558	22101
1	3602541609	6559	21571
1	3603099050	6560	23532
1	3603656646	6561	22790
1	3604214180	6562	21041
1	3604771666	6563	23161
1	3605328942	6564	19928
1	3605886416	6565	21836
1	3606444104	6566	22525
1	3607001575	6567	22684
1	3607558904	6568	21942
1	3608116731	6569	21942
1	3608674018	6570	21147
1	3609231785	6571	23691
1	3609789389	6572	22419
1	3610346484	6573	22737
1	3610904084	6574	24645
1	3611461388	6575	21253
1	3612018985	6576	22949
1	3612576800	6577	21836
1	3613134201	6578	20935
1	3613691380	6579	23267
1	3614248987	6580	22260
1	3614806617	6581	21571
1	3615363776	6582	21253
1	3615921307	6583	21783
1	3616478769	6584	21465
1	3617036391	6585	21942
1	3617594051	6586	21465
1	3618151816	6587	21889
1	3618708789	6588	21836
1	3619266370	6589	21518
1	3619823920	6590	21783
1	3620381387	6591	23373
1	3620938841	6592	21571
1	3621496567	6593	22631
1	3622053867	6594	21995
1	3622611502	6595	22260
1	3623169093	6596	23002
1	3623726446	6597	22737
1	3624283828	6598	22207
1	3624841331	6599	20829
1	3625398773	6600	21253
1	3625956762	6601	24751
1	3626514202	6602	23850
1	3627071454	6603	21624
1	3627628966	6604	23002
1	3628186705	6605	23108
1	3628743488	6606	22525
1	3629301500	6607	20246
1	3629858892	6608	21836
1	3630416450	6609	21571
1	3630973774	6610	20670
1	3631531231	6611	21624
1	3632089157	6612	22737
1	3632646671	6613	22313
1	3633203917	6614	22843
1	3633761456	6615	22949
1	3634318917	6616	21518
1	3634876254	6617	21889
1	3635433721	6618	21412
1	3635991634	6619	23373
1	3636549196	6620	21730
1	3637106433	6621	22843
1	3637663883	6622	21465
1	3638221452	6623	22631
1	3638778819	6624	21465
1	3639336248	6625	22472
1	3639894000	6626	22578
1	3640451525	6627	23691
1	3641009100	6628	21200
1	3641566370	6629	21677
1	3642123807	6630	21359
1	3642681394	6631	22578
1	3643238849	6632	24062
1	3643796379	6633	20829
1	3644353680	6634	22048
1	3644911402	6635	21783
1	3645468931	6636	21889
1	3646026261	6637	22790
1	3646583854	6638	21518
1	3647141082	6639	22843
1	3647698755	6640	22260
1	3648256305	6641	22260
1	3648813842	6642	21995
1	3649371388	6643	22949
1	3649928794	6644	22154
1	3650486235	6645	20140
1	3651043714	6646	20458
1	3651601409	6647	23108
1	3652158832	6648	22578
1	3652716382	6649	22154
1	3653273851	6650	20458
1	3653831353	6651	21147
1	3654388555	6652	23161
1	3654946366	6653	22790
1	3655503850	6654	23055
1	3656061130	6655	19822
1	3656618926	6656	23479
1	3657176590	6657	22896
1	3657733789	6658	23002
1	3658291478	6659	21306
1	3658848888	6660	23744
1	3659406100	6661	21147
1	3659964080	6662	23426
1	3660521103	6663	21889
1	3661078729	6664	22472
1	3661636316	6665	21889
1	3662193661	6666	20617
1	3662751474	6667	22790
1	3663308793	6668	24963
1	3663866447	6669	23532
1	3664423893	6670	22207
1	3664981411	6671	21889
1	3665538755	6672	22737
1	3666096420	6673	21253
1	3666654095	6674	23267
1	3667211661	6675	24062
1	3667768936	6676	21783
1	3668326518	6677	23638
1	3668884032	6678	21253
1	3669441361	6679	21200
1	3669999052	6680	23532
1	3670556453	6681	20670
1	3671114186	6682	23744
1	3671671481	6683	24698
1	3672228953	6684	22366
1	3672786468	6685	20617
1	3673343915	6686	23002
1	3673901652	6687	22154
1	3674459145	6688	21412
1	3675016344	6689	22154
1	3675573689	6690	20564
1	3676131502	6691	21730
1	3676689022	6692	22896
1	3677246334	6693	22419
1	3677803909	6694	21041
1	3678361190	6695	24486
1	3678918767	6696	21041
1	3679476331	6697	21889
1	3680033934	6698	24910
1	3680591592	6699	20829
1	3681149059	6700	22631
1	3681706582	6701	24698
1	3682263806	6702	22260
1	3682821573	6703	21041
1	3683379070	6704	22101
1	3683936498	6705	23002
1	3684494127	6706	23002
1	3685051470	6707	20723
1	3685608972	6708	20617
1	3686166396	6709	23161
1	3686724167	6710	24062
1	3687281553	6711	22154
1	3687839017	6712	24115
1	3688396508	6713	23214
1	3688953940	6714	22313
1	3689511545	6715	22048
1	3690068929	6716	23320
1	3690626456	6717	24433
1	3691184425	6718	21571
1	3691741631	6719	23903
1	3692298981	6720	21783
1	3692856678	6721	21783
1	3693414309	6722	21995
1	3693971569	6723	23373
1	3694529053	6724	21677
1	3695086832	6725	23585
1	3695644216	6726	22366
1	3696201579	6727	22101
1	3696759095	6728	22790
1	3697316541	6729	23161
1	3697874071	6730	21200
1	3698432000	6731	21889
1	3698989071	6732	21571
1	3699546519	6733	22101
1	3700104206	6734	22101
1	3700661563	6735	22419
1	3701219268	6736	25334
1	3701776751	6737	20564
1	3702333954	6738	22790
1	3702891548	6739	23426
1	3703449493	6740	22631
1	3704006864	6741	21995
1	3704564300	6742	23479
1	3705121724	6743	21677
1	3705679053	6744	22790
1	3706236478	6745	21412
1	3706794309	6746	22578
1	3707351769	6747	23797
1	3707909429	6748	21942
1	3708466486	6749	22419
1	3709024001	6750	22419
1	3709581747	6751	21518
1	3710139249	6752	22048
1	3710696710	6753	25228
1	3711254271	6754	20352
1	3711811871	6755	23373
1	3712369225	6756	21253
1	3712926836	6757	21942
1	3713484158	6758	23744
1	3714041639	6759	23214
1	3714599020	6760	22313
1	3715157225	6761	21730
1	3715714468	6762	21359
1	3716271800	6763	24115
1	3716829356	6764	23055
1	3717386412	6765	22684
1	3717944132	6766	21677
1	3718501592	6767	22949
1	3719059368	6768	23426
1	3719617035	6769	23373
1	3720174333	6770	21518
1	3720731851	6771	20829
1	3721289202	6772	23002
1	3721846766	6773	20670
1	3722404198	6774	21359
1	3722962001	6775	21571
1	3723519119	6776	21889
1	3724076928	6777	24327
1	3724634394	6778	22790
1	3725191908	6779	21783
1	3725749123	6780	21041
1	3726306493	6781	22313
1	3726864443	6782	22207
1	3727421587	6783	20299
1	3727979020	6784	22260
1	3728536939	6785	23055
1	3729094305	6786	22260
1	3729651835	6787	22525
1	3730209464	6788	24221
1	3730766669	6789	22525
1	3731324274	6790	21571
1	3731881889	6791	22525
1	3732439565	6792	22048
1	3732996928	6793	22896
1	3733554526	6794	19239
1	3734111767	6795	21836
1	3734669248	6796	23532
1	3735226850	6797	22207
1	3735784128	6798	21889
1	3736341500	6799	21836
1	3736899090	6800	22366
1	3737456728	6801	22207
1	3738014155	6802	22366
1	3738571983	6803	22949
1	3739129259	6804	23214
1	3739686743	6805	21624
1	3740244301	6806	22949
1	3740801603	6807	22313
1	3741359093	6808	23426
1	3741917012	6809	22843
1	3742474351	6810	22790
1	3743031691	6811	23373
1	3743589515	6812	20299
1	3744146892	6813	22154
1	3744704654	6814	22154
1	3745261734	6815	21465
1	3745819378	6816	21730
1	3746376941	6817	21200
1	3746934463	6818	22843
1	3747491740	6819	21889
1	3748049190	6820	21147
1	3748606603	6821	22631
1	3749164241	6822	21995
1	3749721777	6823	24380
1	3750279330	6824	23638
1	3750836672	6825	20034
1	3751394296	6826	22472
1	3751951974	6827	23055
1	3752509234	6828	21730
1	3753066577	6829	20988
1	3753624243	6830	24592
1	3754181570	6831	21359
1	3754739434	6832	21995
1	3755296697	6833	24857
1	3755854242	6834	20988
1	3756411863	6835	22737
1	3756969174	6836	22578
1	3757526836	6837	22207
1	3758084526	6838	24380
1	3758641959	6839	21889
1	3759199349	6840	22896
1	3759756822	6841	22048
1	3760314526	6842	24062
1	3760871622	6843	20405
1	3761429230	6844	21836
1	3761986643	6845	22366
1	3762544321	6846	22631
1	3763101928	6847	22525
1	3763659653	6848	21412
1	3764216979	6849	21571
1	3764774445	6850	22790
1	3765331769	6851	22949
1	3765889305	6852	21147
1	3766446743	6853	22843
1	3767004125	6854	22313
1	3767561855	6855	22843
1	3768119414	6856	21995
1	3768677115	6857	21359
1	3769234525	6858	21518
1	3769791739	6859	20405
1	3770349377	6860	22048
1	3770906883	6861	23055
1	3771464223	6862	22366
1	3772022023	6863	22684
1	3772579333	6864	23002
1	3773136710	6865	21465
1	3773694221	6866	22419
1	3774251824	6867	24115
1	3774809403	6868	23108
1	3775367264	6869	22949
1	3775924263	6870	21253
1	3776481774	6871	21359
1	3777039090	6872	21942
1	3777596553	6873	22843
1	3778154251	6874	21571
1	3778712100	6875	24910
1	3779269319	6876	20935
1	3779826737	6877	20988
1	3780384434	6878	21942
1	3780941730	6879	22737
1	3781499447	6880	23267
1	3782056826	6881	21783
1	3782614512	6882	22631
1	3783171700	6883	23267
1	3783729405	6884	22154
1	3784287066	6885	22684
1	3784844477	6886	24539
1	3785402198	6887	23002
1	3785959455	6888	20829
1	3786516753	6889	20670
1	3787074252	6890	22896
1	3787631718	6891	23850
1	3788189596	6892	22101
1	3788746887	6893	22684
1	3789304491	6894	21783
1	3789861821	6895	22472
1	3790419260	6896	23108
1	3790976975	6897	22154
1	3791534199	6898	22472
1	3792091706	6899	21359
1	3792649211	6900	21889
1	3793207029	6901	22525
1	3793764682	6902	23267
1	3794321940	6903	21995
1	3794879589	6904	22260
1	3795437054	6905	21942
1	3795994544	6906	23055
1	3796551939	6907	20299
1	3797109370	6908	22684
1	3797666950	6909	23108
1	3798224694	6910	23002
1	3798781862	6911	21942
1	3799339703	6912	21041
1	3799896901	6913	22154
1	3800454671	6914	22366
1	3801011763	6915	21306
1	3801569468	6916	22525
1	3802126998	6917	21783
1	3802684644	6918	23744
1	3803242048	6919	21677
1	3803799501	6920	21889
1	3804356978	6921	22207
1	3804914395	6922	21306
1	3805471825	6923	21518
1	3806029496	6924	21571
1	3806586814	6925	21942
1	3807144565	6926	23373
1	3807702073	6927	21624
1	3808259409	6928	22101
1	3808817040	6929	21412
1	3809374241	6930	21995
1	3809931884	6931	21889
1	3810489147	6932	22366
1	3811046707	6933	21624
1	3811604374	6934	20617
1	3812161803	6935	22578
1	3812719177	6936	22790
1	3813276866	6937	20723
1	3813834257	6938	23161
1	3814391594	6939	21306
1	3814949229	6940	20882
1	3815506687	6941	21889
1	3816064485	6942	23320
1	3816621924	6943	23055
1	3817179303	6944	22578
1	3817736653	6945	22366
1	3818294440	6946	23373
1	3818851958	6947	20988
1	3819408937	6948	21465
1	3819966763	6949	20829
1	3820524261	6950	23426
1	3821081581	6951	22154
1	3821639256	6952	22684
1	3822196987	6953	20723
1	3822754279	6954	21889
1	3823311722	6955	23267
1	3823869234	6956	21200
1	3824426832	6957	21836
1	3824984352	6958	21783
1	3825541966	6959	22207
1	3826099201	6960	22896
1	3826656677	6961	24009
1	3827214355	6962	21889
1	3827771653	6963	22101
1	3828329216	6964	19451
1	3828886630	6965	21889
1	3829444229	6966	23320
1	3830001663	6967	20458
1	3830559311	6968	22366
1	3831116734	6969	22631
1	3831674104	6970	22366
1	3832231972	6971	22313
1	3832789050	6972	24009
1	3833346750	6973	23426
1	3833904151	6974	20087
1	3834461764	6975	23532
1	3835019400	6976	22684
1	3835576782	6977	22896
1	3836134426	6978	21412
1	3836691729	6979	22578
1	3837249218	6980	22419
1	3837806711	6981	22419
1	3838364185	6982	22101
1	3838922073	6983	22207
1	3839479132	6984	22896
1	3840036629	6985	23320
1	3840594434	6986	23161
1	3841151823	6987	22684
1	3841709245	6988	21889
1	3842267122	6989	21412
1	3842824409	6990	23320
1	3843381711	6991	22472
1	3843939477	6992	22207
1	3844496744	6993	22366
1	3845054179	6994	21571
1	3845611939	6995	22313
1	3846169208	6996	21518
1	3846726850	6997	22949
1	3847284372	6998	22419
1	3847841986	6999	21571
1	3848399311	7000	22525
1	3848956536	7001	21412
1	3849514214	7002	21624
1	3850071668	7003	21200
1	3850629381	7004	21253
1	3851186675	7005	22472
1	3851744268	7006	20988
1	3852301800	7007	22790
1	3852859616	7008	22154
1	3853416770	7009	20935
1	3853974189	7010	21730
1	3854531876	7011	22684
1	3855089201	7012	20034
1	3855646763	7013	21571
1	3856204383	7014	24062
1	3856761832	7015	22737
1	3857319146	7016	21624
1	3857876817	7017	21465
1	3858434611	7018	22896
1	3858991530	7019	21677
1	3859549308	7020	22896
1	3860106659	7021	22472
1	3860663924	7022	21836
1	3861221764	7023	19822
1	3861779022	7024	22631
1	3862336640	7025	24380
1	3862893902	7026	22207
1	3863451798	7027	21253
1	3864009097	7028	22207
1	3864566715	7029	22154
1	3865124302	7030	20829
1	3865681790	7031	23744
1	3866239169	7032	23214
1	3866796878	7033	21147
1	3867354334	7034	23214
1	3867911509	7035	20935
1	3868469065	7036	21836
1	3869026648	7037	20087
1	3869584242	7038	20458
1	3870141478	7039	23108
1	3870699128	7040	20564
1	3871256530	7041	22101
1	3871814043	7042	22949
1	3872371620	7043	22684
1	3872928943	7044	21094
1	3873486585	7045	19504
1	3874044062	7046	22472
1	3874601447	7047	22366
1	3875158875	7048	23320
1	3875716875	7049	22790
1	3876274169	7050	22207
1	3876831349	7051	22260
1	3877389156	7052	23055
1	3877946425	7053	23532
1	3878504391	7054	23161
1	3879061646	7055	22101
1	3879618914	7056	22207
1	3880176605	7057	21995
1	3880734315	7058	23161
1	3881291648	7059	22313
1	3881849011	7060	21836
1	3882406571	7061	21942
1	3882963868	7062	21836
1	3883521470	7063	20299
1	3884078930	7064	23055
1	3884636577	7065	21836
1	3885194164	7066	22048
1	3885751693	7067	22790
1	3886309335	7068	22260
1	3886866677	7069	21677
1	3887424248	7070	21783
1	3887981544	7071	21995
1	3888539010	7072	22154
1	3889096431	7073	24115
1	3889654143	7074	21041
1	3890211467	7075	21253
1	3890769109	7076	22472
1	3891326399	7077	20882
1	3891884010	7078	22207
1	3892441542	7079	21253
1	3892999017	7080	22578
1	3893556514	7081	20034
1	3894113978	7082	20299
1	3894671827	7083	23267
1	3895228658	7084	19663
1	3895786483	7085	22843
1	3896343824	7086	23426
1	3896901151	7087	21147
1	3897458865	7088	22048
1	3898016382	7089	22313
1	3898573760	7090	20882
1	3899131470	7091	23585
1	3899688805	7092	21200
1	3900246464	7093	21412
1	3900803961	7094	23850
1	3901361343	7095	23373
1	3901918771	7096	22631
1	3902476666	7097	22472
1	3903033686	7098	21836
1	3903591707	7099	23267
1	3904149094	7100	23320
1	3904706554	7101	21147
1	3905264063	7102	22101
1	3905821650	7103	21889
1	3906378997	7104	21147
1	3906936167	7105	22366
1	3907493660	7106	20405
1	3908051371	7107	22472
1	3908609050	7108	23055
1	3909166482	7109	20988
1	3909723833	7110	22048
1	3910281149	7111	22949
1	3910838859	7112	22313
1	3911396472	7113	22737
1	3911953829	7114	21995
1	3912511501	7115	22207
1	3913068992	7116	24433
1	3913626545	7117	23161
1	3914184013	7118	23055
1	3914741484	7119	22896
1	3915299039	7120	22737
1	3915856798	7121	24433
1	3916414078	7122	23320
1	3916971649	7123	21942
1	3917528983	7124	22419
1	3918086463	7125	20723
1	3918643900	7126	22313
1	3919201499	7127	21677
1	3919759039	7128	22525
1	3920316691	7129	23373
1	3920874209	7130	22472
1	3921431556	7131	20617
1	3921989200	7132	21677
1	3922546444	7133	21359
1	3923104071	7134	24115
1	3923661515	7135	22949
1	3924218948	7136	21836
1	3924776351	7137	22578
1	3925333980	7138	21200
1	3925891489	7139	21147
1	3926449019	7140	21783
1	3927006549	7141	19981
1	3927563892	7142	22684
1	3928121609	7143	22790
1	3928678946	7144	21518
1	3929236552	7145	21889
1	3929793824	7146	21041
1	3930351245	7147	22101
1	3930908714	7148	22313
1	3931466311	7149	22631
1	3932023933	7150	21518
1	3932581532	7151	23267
1	3933138861	7152	21995
1	3933696598	7153	21041
1	3934253956	7154	23161
1	3934811441	7155	21359
1	3935368840	7156	21518
1	3935926517	7157	21836
1	3936483864	7158	21783
1	3937041274	7159	21041
1	3937598830	7160	22684
1	3938156191	7161	21200
1	3938713844	7162	24698
1	3939271564	7163	23055
1	3939828946	7164	24168
1	3940386490	7165	21889
1	3940943803	7166	23267
1	3941501504	7167	23638
1	3942058954	7168	23055
1	3942616279	7169	20458
1	3943174169	7170	22101
1	3943731399	7171	22366
1	3944289160	7172	22949
1	3944846427	7173	21412
1	3945404193	7174	22737
1	3945961230	7175	23850
1	3946518876	7176	24327
1	3947076520	7177	21942
1	3947634183	7178	22313
1	3948191516	7179	22631
1	3948749049	7180	20034
1	3949306592	7181	23532
1	3949863992	7182	22260
1	3950421220	7183	21783
1	3950978972	7184	21942
1	3951536658	7185	23002
1	3952093958	7186	21359
1	3952651419	7187	21730
1	3953208853	7188	21995
1	3953766533	7189	22419
1	3954323797	7190	20670
1	3954881423	7191	20617
1	3955439010	7192	22313
1	3955996153	7193	22737
1	3956553937	7194	20246
1	3957111350	7195	21889
1	3957668932	7196	21995
1	3958226282	7197	22101
1	3958783782	7198	20511
1	3959341181	7199	21730
1	3959898882	7200	24062
1	3960456301	7201	20299
1	3961013975	7202	23214
1	3961571502	7203	23161
1	3962128740	7204	22843
1	3962686113	7205	20723
1	3963243913	7206	21730
1	3963801360	7207	21730
1	3964358729	7208	21783
1	3964916211	7209	24009
1	3965473831	7210	23956
1	3966031268	7211	20617
1	3966588796	7212	21677
1	3967146391	7213	20935
1	3967703728	7214	21571
1	3968261331	7215	21624
1	3968818793	7216	22207
1	3969376664	7217	22631
1	3969933681	7218	22843
1	3970491257	7219	21306
1	3971048632	7220	23267
1	3971606191	7221	19875
1	3972163860	7222	21518
1	3972721402	7223	20988
1	3973278529	7224	21571
1	3973836504	7225	21783
1	3974393761	7226	21889
1	3974951191	7227	21147
1	3975508666	7228	21730
1	3976066367	7229	22154
1	3976623385	7230	22949
1	3977181110	7231	23373
1	3977738673	7232	22949
1	3978296268	7233	24645
1	3978853834	7234	21942
1	3979411295	7235	20723
1	3979968414	7236	21200
1	3980526175	7237	20882
1	3981083839	7238	21889
1	3981641273	7239	23956
1	3982198765	7240	22419
1	3982756242	7241	21306
1	3983313803	7242	22154
1	3983871108	7243	22631
1	3984428755	7244	23585
1	3984986304	7245	20723
1	3985543681	7246	21412
1	3986101130	7247	21094
1	3986658460	7248	23267
1	3987216211	7249	21677
1	3987773659	7250	24009
1	3988331416	7251	21836
1	3988889058	7252	24433
1	3989446428	7253	22101
1	3990003688	7254	21942
1	3990561173	7255	22366
1	3991118866	7256	22207
1	3991676182	7257	22313