version 2
run PerfectCC-2-20100906-00:25:47-5816
attr configname PerfectCC
attr datetime 20100906-00:25:47
attr experiment PerfectCC
attr inifile D:/Developement/Oversim2/multic/simulations/omnetpp.ini
attr iterationvars $mpeers=49
attr iterationvars2 "$mpeers=49, $repetition=0"
attr measurement $mpeers=49
attr mpeers 49
attr network oversim.underlay.simpleunderlay.SimpleUnderlayNetwork
attr processid 5816
attr repetition 0
attr replication #0
attr resultdir results
attr runnumber 2
attr seedset 2

vector 1  SimpleUnderlayNetwork.globalObserver.globalStatistics  incoming_bytes  ETV
vector 2  SimpleUnderlayNetwork.globalObserver.globalStatistics  drops  ETV
vector 3  SimpleUnderlayNetwork.globalObserver.globalStatistics  delayed_acks  ETV
vector 4  SimpleUnderlayNetwork.globalObserver.globalStatistics  timetotimeouts  ETV
vector 5  SimpleUnderlayNetwork.globalObserver.globalStatistics  rate  ETV
vector 6  SimpleUnderlayNetwork.globalObserver.globalStatistics  "GlobalNodeList: Number of nodes"  ETV
vector 7  SimpleUnderlayNetwork.globalObserver.globalStatistics  "GlobalNodeList: Number of bootstrapped malicious nodes"  ETV
1	31652234	197	222282
1	31863384	198	226787
1	32073055	199	222176
1	32283027	200	223183
1	32494071	201	224879
1	32704421	202	223342
1	32915063	203	225038
1	33125324	204	223607
1	33336228	205	224826
1	33545395	206	220268
1	33754750	207	221487
1	33965730	208	225727
1	34177132	209	225621
1	34386901	210	222282
1	34597364	211	225144
1	34807877	212	224561
1	35018061	213	222706
1	35227442	214	221010
1	35438967	215	226469
1	35648590	216	222282
1	35860123	217	227370
1	36070994	218	224985
1	36281695	219	224137
1	36492214	220	223766
1	36702646	221	224243
1	36912943	222	223024
1	37121964	223	219950
1	37332179	224	224137
1	37541225	225	220480
1	37751876	226	226469
1	37962010	227	222070
1	38172796	228	225886
1	38383575	229	223448
1	38593167	230	221540
1	38803596	231	224932
1	39012550	232	219579
1	39223099	233	224296
1	39432633	234	223342
1	39643901	235	224455
1	39852629	236	220056
1	40062301	237	220957
1	40271932	238	222759
1	40479887	239	218466
1	40691536	240	227317
1	40901053	241	220162
1	41110571	242	223183
1	41320526	243	222176
1	41530053	244	221964
1	41739401	245	220904
1	41948981	246	221010
1	42158721	247	224031
1	42368983	248	221964
1	42580096	249	226469
1	42791416	250	226575
1	43001909	251	223819
1	43213142	252	225727
1	43423898	253	226045
1	43634753	254	224243
1	43843670	255	219844
1	44055187	256	226734
1	44265695	257	223554
1	44475698	258	223183
1	44686748	259	225303
1	44897031	260	223819
1	45107686	261	223607
1	45316862	262	221593
1	45527333	263	224190
1	45738773	264	227370
1	45948407	265	220427
1	46158029	266	223236
1	46368608	267	224296
1	46577901	268	220692
1	46788084	269	223501
1	46997995	270	223289
1	47209154	271	225780
1	47419104	272	221911
1	47628020	273	221222
1	47839327	274	227052
1	48050142	275	223872
1	48261050	276	225409
1	48471598	277	223395
1	48681956	278	224031
1	48892879	279	226204
1	49102767	280	222123
1	49313485	281	222971
1	49524574	282	225038
1	49733458	283	219261
1	49943450	284	224455
1	50153131	285	222971
1	50364948	286	227211
1	50572795	287	216558
1	50783174	288	225250
1	50994470	289	225462
1	51203783	290	221434
1	51414102	291	223872
1	51625169	292	224720
1	51834639	293	221911
1	52045225	294	224773
1	52255543	295	222971
1	52465256	296	222706
1	52674380	297	221434
1	52885307	298	224614
1	53095282	299	223713
1	53306165	300	225568
1	53517060	301	224773
1	53727389	302	224137
1	53937373	303	221222
1	54148368	304	226310
1	54359435	305	224455
1	54569414	306	222441
1	54779615	307	223342
1	54990070	308	224667
1	55201764	309	226522
1	55411860	310	223448
1	55621455	311	222176
1	55832030	312	223819
1	56040827	313	219897
1	56251793	314	225992
1	56462785	315	225780
1	56673135	316	224137
1	56883593	317	223554
1	57093166	318	221752
1	57304033	319	225197
1	57514640	320	223660
1	57723710	321	221540
1	57934301	322	224031
1	58144019	323	221593
1	58355373	324	227317
1	58565607	325	222600
1	58777095	326	226681
1	58987785	327	224773
1	59197755	328	223236
1	59408381	329	224455
1	59618055	330	221381
1	59828808	331	225515
1	60039948	332	225515
1	60250380	333	222865
1	60459176	334	221434
1	60669438	335	224508
1	60880899	336	225621
1	61088903	337	217459
1	61299390	338	224084
1	61510346	339	225621
1	61719455	340	219314
1	61929923	341	225886
1	62142424	342	228536
1	62352312	343	221858
1	62562897	344	225568
1	62775074	345	226946
1	62983340	346	217724
1	63194065	347	225515
1	63403871	348	221699
1	63614254	349	223925
1	63826041	350	226575
1	64035480	351	222335
1	64247465	352	227582
1	64456748	353	220533
1	64667432	354	225038
1	64879306	355	228536
1	65089269	356	222388
1	65300108	357	224561
1	65510710	358	224773
1	65720621	359	222865
1	65932210	360	226999
1	66142222	361	222123
1	66352944	362	225621
1	66564875	363	226946
1	66774514	364	221487
1	66983613	365	221169
1	67194199	366	224084
1	67404817	367	224084
1	67616098	368	226416
1	67826552	369	224402
1	68037115	370	223289
1	68247880	371	224349
1	68458306	372	224349
1	68668179	373	222388
1	68877874	374	222070
1	69088885	375	225780
1	69298748	376	222706
1	69508404	377	221010
1	69719405	378	226522
1	69929967	379	223713
1	70140182	380	223607
1	70349078	381	220374
1	70559538	382	224243
1	70768991	383	222706
1	70978950	384	222918
1	71189390	385	224932
1	71398760	386	220109
1	71608756	387	222971
1	71818745	388	222653
1	72028707	389	223554
1	72240171	390	225886
1	72449866	391	222282
1	72660737	392	224932
1	72871033	393	222017
1	73079534	394	220374
1	73290847	395	226310
1	73500044	396	220904
1	73711142	397	226045
1	73921964	398	224243
1	74132343	399	223978
1	74342230	400	222070
1	74553514	401	226734
1	74762834	402	221222
1	74972024	403	221116
1	75182247	404	223024
1	75389760	405	217194
1	75601100	406	226946
1	75810548	407	220692
1	76021115	408	225356
1	76231096	409	221911
1	76440391	410	221646
1	76651118	411	225197
1	76860868	412	222017
1	77071265	413	224031
1	77282297	414	225674
1	77493262	415	224667
1	77702977	416	222494
1	77913914	417	225780
1	78124946	418	224720
1	78335052	419	222971
1	78544608	420	222547
1	78755901	421	225462
1	78967012	422	224720
1	79176217	423	222229
1	79386723	424	223978
1	79597325	425	223925
1	79807717	426	223872
1	80018079	427	223501
1	80227818	428	222335
1	80438538	429	224137
1	80649141	430	224402
1	80858987	431	223077
1	81070437	432	226734
1	81281309	433	224508
1	81490787	434	221858
1	81702489	435	226098
1	81912186	436	222229
1	82123960	437	226787
1	82332211	438	218890
1	82543431	439	225409
1	82754029	440	224296
1	82964744	441	223448
1	83175377	442	225462
1	83385408	443	223554
1	83594515	444	220957
1	83804458	445	222229
1	84016030	446	226522
1	84226744	447	225250
1	84438052	448	225674
1	84648620	449	224031
1	84859587	450	224773
1	85068699	451	220586
1	85279139	452	225197
1	85489371	453	223236
1	85698268	454	220427
1	85908185	455	223183
1	86118337	456	224137
1	86328940	457	223448
1	86538321	458	221911
1	86747536	459	220904
1	86957301	460	222176
1	87167489	461	224084
1	87378334	462	225038
1	87588026	463	221593
1	87799210	464	226045
1	88010273	465	225462
1	88219286	466	220321
1	88429545	467	223766
1	88639061	468	221646
1	88849016	469	222759
1	89059042	470	222865
1	89269935	471	225038
1	89480283	472	223342
1	89691500	473	226628
1	89902391	474	225144
1	90111993	475	221752
1	90322717	476	224455
1	90533044	477	224402
1	90742879	478	222653
1	90953233	479	223183
1	91164114	480	225250
1	91374271	481	223501
1	91585525	482	226840
1	91794829	483	220533
1	92006215	484	226257
1	92217559	485	225621
1	92427730	486	222918
1	92638918	487	225409
1	92849742	488	224826
1	93061392	489	227211
1	93270985	490	221858
1	93482502	491	226363
1	93691631	492	219844
1	93901064	493	222706
1	94111114	494	223660
1	94320475	495	221911
1	94532099	496	226628
1	94743057	497	225197
1	94954350	498	225250
1	95164517	499	223501
1	95375125	500	224243
1	95586106	501	225250
1	95797901	502	226257
1	96006653	503	219367
1	96216888	504	225515
1	96426142	505	220162
1	96635606	506	221275
1	96845954	507	223766
1	97056159	508	223289
1	97267957	509	227211
1	97478127	510	223554
1	97689295	511	225409
1	97900535	512	226310
1	98111568	513	225674
1	98321844	514	222971
1	98531544	515	222176
1	98742624	516	226257
1	98952765	517	222070
1	99163371	518	224137
1	99373857	519	224031
1	99583230	520	222388
1	99794077	521	224985
1	100005618	522	227052
1	100216641	523	225144
1	100427202	524	223819
1	100636519	525	221540
1	100848169	526	227317
1	101057437	527	220533
1	101268240	528	224720
1	101478348	529	223978
1	101689722	530	226575
1	101900446	531	224455
1	102110376	532	221699
1	102320195	533	222918
1	102529793	534	221964
1	102739600	535	223130
1	102950680	536	225144
1	103160564	537	222070
1	103370846	538	224455
1	103580930	539	221805
1	103790315	540	221699
1	104000613	541	224243
1	104210185	542	222176
1	104419605	543	222759
1	104630783	544	225091
1	104842095	545	226098
1	105052534	546	223713
1	105261914	547	221646
1	105471901	548	221858
1	105682331	549	224773
1	105892144	550	222176
1	106103496	551	226787
1	106314216	552	224455
1	106524348	553	222865
1	106735787	554	225992
1	106945499	555	222441
1	107155715	556	223395
1	107365635	557	223236
1	107576129	558	224667
1	107785919	559	221010
1	107995917	560	223130
1	108206711	561	225250
1	108416504	562	221805
1	108626881	563	224561
1	108837659	564	224773
1	109047345	565	222070
1	109256330	566	219314
1	109467008	567	224879
1	109678005	568	225091
1	109887057	569	220480
1	110096397	570	222441
1	110308920	571	229066
1	110518803	572	222335
1	110728381	573	222282
1	110939558	574	224826
1	111149604	575	222335
1	111360317	576	225144
1	111571327	577	225674
1	111781819	578	225515
1	111991786	579	222759
1	112202027	580	222706
1	112411302	581	220957
1	112620901	582	222123
1	112830209	583	222070
1	113041720	584	226469
1	113251015	585	220533
1	113461108	586	224402
1	113671474	587	224508
1	113882184	588	224243
1	114090599	589	219685
1	114301280	590	224455
1	114511317	591	223448
1	114722465	592	224720
1	114932684	593	224243
1	115143983	594	226522
1	115354424	595	222812
1	115565238	596	225144
1	115775967	597	224773
1	115986561	598	223978
1	116196282	599	221169
1	116406288	600	223342
1	116616797	601	224243
1	116827497	602	224826
1	117037418	603	223130
1	117248699	604	226098
1	117458533	605	221699
1	117668778	606	223660
1	117879688	607	224720
1	118090006	608	224137
1	118300962	609	225250
1	118511236	610	222918
1	118722616	611	226469
1	118933482	612	224561
1	119143960	613	224826
1	119355389	614	225939
1	119565117	615	221169
1	119776845	616	227635
1	119987030	617	222388
1	120198119	618	226310
1	120409053	619	225568
1	120619248	620	222017
1	120830062	621	225621
1	121041380	622	225674
1	121251138	623	221646
1	121462088	624	224826
1	121672883	625	224349
1	121883387	626	224985
1	122094845	627	225886
1	122305410	628	224667
1	122515597	629	222441
1	122725545	630	223342
1	122936523	631	225091
1	123147463	632	224826
1	123356961	633	222070
1	123568859	634	228430
1	123778553	635	221328
1	123989221	636	224243
1	124200142	637	224455
1	124409905	638	222971
1	124620316	639	223289
1	124830734	640	224614
1	125042530	641	227741
1	125253564	642	225621
1	125465881	643	227688
1	125675970	644	222123
1	125886184	645	222600
1	126096971	646	225992
1	126309202	647	227476
1	126520012	648	224773
1	126730164	649	224243
1	126940756	650	224773
1	127151225	651	223713
1	127361852	652	224455
1	127571831	653	222865
1	127783423	654	226893
1	127994028	655	224720
1	128204949	656	224985
1	128415891	657	225250
1	128627523	658	226416
1	128837345	659	222229
1	129047787	660	224614
1	129258583	661	224826
1	129468169	662	221805
1	129678571	663	223872
1	129888751	664	223236
1	130099165	665	223978
1	130309448	666	224402
1	130519519	667	222547
1	130728918	668	221593
1	130939989	669	226098
1	131151403	670	226098
1	131361336	671	223395
1	131571774	672	223501
1	131782005	673	224084
1	131993333	674	226257
1	132203093	675	221593
1	132413839	676	224932
1	132624764	677	224349
1	132836340	678	227105
1	133047158	679	224349
1	133257260	680	223289
1	133468921	681	227423
1	133679772	682	224084
1	133890197	683	223766
1	134101520	684	226893
1	134310899	685	220639
1	134521625	686	224296
1	134732032	687	225939
1	134943565	688	226151
1	135153099	689	220533
1	135364065	690	225356
1	135574428	691	223925
1	135785921	692	226257
1	135995011	693	219049
1	136206704	694	227953
1	136417019	695	222706
1	136628085	696	225621
1	136836907	697	220427
1	137046901	698	223766
1	137256465	699	221487
1	137466707	700	223501
1	137677712	701	225303
1	137887483	702	220957
1	138097757	703	224667
1	138308679	704	224349
1	138518731	705	223660
1	138729400	706	224084
1	138939432	707	223342
1	139149106	708	221858
1	139360522	709	226522
1	139570458	710	222017
1	139780443	711	223607
1	139991915	712	226310
1	140201618	713	221699
1	140412355	714	224985
1	140622669	715	224296
1	140832622	716	221593
1	141042800	717	224402
1	141253025	718	223607
1	141462743	719	221964
1	141671832	720	221222
1	141882028	721	224031
1	142092843	722	223978
1	142302240	723	221010
1	142513042	724	224932
1	142722587	725	222282
1	142933169	726	224667
1	143144046	727	224932
1	143354405	728	223872
1	143565001	729	224561
1	143774855	730	220374
1	143984798	731	223289
1	144194351	732	222547
1	144406014	733	226734
1	144615875	734	222070
1	144826621	735	225515
1	145037184	736	223236
1	145247484	737	223289
1	145457216	738	223077
1	145667850	739	223183
1	145878215	740	224879
1	146088804	741	224773
1	146299196	742	222971
1	146508607	743	221169
1	146719692	744	227052
1	146931096	745	225144
1	147140466	746	221010
1	147350698	747	224137
1	147559335	748	219102
1	147769785	749	225250
1	147978364	750	219314
1	148188625	751	223501
1	148398383	752	221646
1	148607565	753	220321
1	148817696	754	224667
1	149028406	755	224826
1	149239651	756	226204
1	149449385	757	221911
1	149659769	758	223660
1	149869096	759	220745
1	150079678	760	225197
1	150291022	761	225091
1	150500114	762	220904
1	150711504	763	225992
1	150921627	764	223024
1	151131954	765	223978
1	151341972	766	223501
1	151552719	767	224773
1	151763028	768	223183
1	151973167	769	223554
1	152183854	770	224296
1	152395249	771	226204
1	152606354	772	225303
1	152815897	773	221116
1	153026810	774	224826
1	153237981	775	226257
1	153449187	776	225833
1	153659556	777	223978
1	153870753	778	226045
1	154080235	779	221116
1	154290615	780	224826
1	154501112	781	223925
1	154711766	782	224137
1	154922249	783	224826
1	155132564	784	223607
1	155342452	785	222282
1	155553084	786	224614
1	155763363	787	223289
1	155973854	788	225621
1	156184751	789	224190
1	156394966	790	223183
1	156605002	791	223236
1	156814792	792	221222
1	157025408	793	224879
1	157233449	794	217724
1	157443819	795	225568
1	157654064	796	223342
1	157863165	797	219791
1	158074195	798	226045
1	158284014	799	222759
1	158495724	800	225992
1	158704794	801	220480
1	158915761	802	225356
1	159125038	803	221593
1	159335679	804	224826
1	159545779	805	223766
1	159756661	806	224879
1	159967608	807	224508
1	160176139	808	219261
1	160386236	809	223077
1	160597147	810	224985
1	160808154	811	225886
1	161018427	812	223554
1	161228089	813	222335
1	161439465	814	225939
1	161649314	815	223872
1	161860492	816	225939
1	162071086	817	223607
1	162281605	818	224773
1	162491846	819	222600
1	162702700	820	225197
1	162912848	821	223819
1	163122946	822	223554
1	163333487	823	223819
1	163543504	824	223289
1	163754150	825	224826
1	163964826	826	224985
1	164175147	827	223872
1	164385188	828	223501
1	164595870	829	224137
1	164806076	830	224084
1	165016796	831	223766
1	165226778	832	222388
1	165435776	833	221699
1	165647636	834	226787
1	165857042	835	221699
1	166067986	836	224826
1	166278977	837	225462
1	166489351	838	223713
1	166700658	839	226257
1	166911154	840	223660
1	167122056	841	225197
1	167333352	842	226416
1	167543162	843	222971
1	167754680	844	226999
1	167964160	845	221063
1	168174405	846	224084
1	168385001	847	222759
1	168594263	848	221858
1	168805107	849	225621
1	169015052	850	222070
1	169224789	851	221593
1	169436071	852	227158
1	169646858	853	225356
1	169857217	854	223183
1	170067049	855	222441
1	170278275	856	226416
1	170487901	857	222176
1	170697891	858	223713
1	170908134	859	223766
1	171117914	860	222176
1	171327709	861	222388
1	171539163	862	225727
1	171748828	863	221805
1	171958688	864	222229
1	172169557	865	225091
1	172379716	866	222441
1	172589931	867	223872
1	172800482	868	224773
1	173009727	869	221063
1	173220590	870	224455
1	173429955	871	222494
1	173640866	872	223236
1	173849659	873	220586
1	174060916	874	226734
1	174270445	875	222229
1	174481536	876	225780
1	174692179	877	224137
1	174902792	878	223713
1	175112573	879	221593
1	175323051	880	225356
1	175532897	881	221275
1	175742955	882	224667
1	175954293	883	224773
1	176164848	884	224508
1	176375131	885	223607
1	176586063	886	224985
1	176795551	887	222176
1	177007210	888	226628
1	177217441	889	223342
1	177428398	890	224561
1	177638938	891	224455
1	177850088	892	225250
1	178060537	893	222918
1	178271867	894	225939
1	178484180	895	228801
1	178695287	896	224985
1	178906966	897	227900
1	179118514	898	225091
1	179329892	899	226363
1	179540567	900	223819
1	179751871	901	227317
1	179962124	902	222918
1	180173035	903	224349
1	180383991	904	225886
1	180594148	905	224031
1	180803782	906	221752
1	181013935	907	222070
1	181224018	908	223978
1	181434506	909	223395
1	181644892	910	224455
1	181855669	911	223607
1	182066407	912	225780
1	182277930	913	225780
1	182487278	914	219526
1	182697568	915	223077
1	182906438	916	221116
1	183116363	917	223342
1	183326463	918	223130
1	183535798	919	221699
1	183746042	920	223607
1	183956924	921	225144
1	184167736	922	224243
1	184376758	923	220480
1	184587717	924	225250
1	184797403	925	221699
1	185007582	926	223766
1	185217498	927	222494
1	185427556	928	222706
1	185638326	929	225992
1	185847766	930	221646
1	186059076	931	227052
1	186268251	932	219738
1	186477429	933	221540
1	186688507	934	225939
1	186899111	935	223713
1	187108727	936	222017
1	187319446	937	225409
1	187529802	938	223978
1	187740048	939	224985
1	187949740	940	221328
1	188160355	941	224720
1	188371141	942	223607
1	188580706	943	222176
1	188791807	944	226098
1	189000471	945	218731
1	189210859	946	224561
1	189420654	947	222759
1	189630773	948	222653
1	189840911	949	222706
1	190049603	950	218307
1	190260643	951	226363
1	190471042	952	224296
1	190681583	953	224932
1	190892354	954	225038
1	191102028	955	222653
1	191312110	956	222441
1	191520290	957	218519
1	191731416	958	225515
1	191940058	959	219738
1	192150595	960	224932
1	192360775	961	223660
1	192571625	962	223925
1	192782360	963	224826
1	192992543	964	223448
1	193203044	965	223766
1	193412800	966	222335
1	193623201	967	224932
1	193832496	968	219897
1	194044283	969	227317
1	194254340	970	222865
1	194465127	971	225197
1	194674979	972	221964
1	194885136	973	224243
1	195096442	974	226204
1	195307629	975	225409
1	195518448	976	224773
1	195728513	977	222812
1	195938702	978	223395
1	196149405	979	224508
1	196360147	980	224932
1	196570108	981	222653
1	196780686	982	223819
1	196991864	983	227264
1	197201740	984	222017
1	197411481	985	222017
1	197623067	986	226628
1	197833626	987	224508
1	198044241	988	224243
1	198254840	989	224137
1	198465202	990	223077
1	198675047	991	222812
1	198885980	992	226787
1	199095397	993	222017
1	199306075	994	223925
1	199515413	995	221752
1	199726197	996	224031
1	199935781	997	222017
1	200146136	998	225409
1	200357117	999	224031
2	31652234	197	58
2	31863384	198	114
2	32073055	199	128
2	32283027	200	86
2	32494071	201	122
2	32704421	202	91
2	32915063	203	119
2	33125324	204	93
2	33336228	205	154
2	33545395	206	146
2	33754750	207	102
2	33965730	208	77
2	34177132	209	128
2	34386901	210	93
2	34597364	211	97
2	34807877	212	104
2	35018061	213	174
2	35227442	214	71
2	35438967	215	119
2	35648590	216	62
2	35860123	217	92
2	36070994	218	94
2	36281695	219	93
2	36492214	220	95
2	36702646	221	118
2	36912943	222	157
2	37121964	223	100
2	37332179	224	159
2	37541225	225	85
2	37751876	226	119
2	37962010	227	87
2	38172796	228	117
2	38383575	229	136
2	38593167	230	77
2	38803596	231	170
2	39012550	232	104
2	39223099	233	109
2	39432633	234	94
2	39643901	235	186
2	39852629	236	164
2	40062301	237	122
2	40271932	238	185
2	40479887	239	50
2	40691536	240	160
2	40901053	241	137
2	41110571	242	129
2	41320526	243	128
2	41530053	244	172
2	41739401	245	143
2	41948981	246	102
2	42158721	247	145
2	42368983	248	69
2	42580096	249	70
2	42791416	250	98
2	43001909	251	86
2	43213142	252	102
2	43423898	253	104
2	43634753	254	157
2	43843670	255	83
2	44055187	256	135
2	44265695	257	110
2	44475698	258	102
2	44686748	259	111
2	44897031	260	115
2	45107686	261	144
2	45316862	262	88
2	45527333	263	79
2	45738773	264	117
2	45948407	265	133
2	46158029	266	74
2	46368608	267	167
2	46577901	268	93
2	46788084	269	114
2	46997995	270	77
2	47209154	271	123
2	47419104	272	142
2	47628020	273	74
2	47839327	274	105
2	48050142	275	89
2	48261050	276	93
2	48471598	277	125
2	48681956	278	87
2	48892879	279	151
2	49102767	280	130
2	49313485	281	116
2	49524574	282	205
2	49733458	283	110
2	49943450	284	120
2	50153131	285	62
2	50364948	286	225
2	50572795	287	92
2	50783174	288	79
2	50994470	289	163
2	51203783	290	107
2	51414102	291	89
2	51625169	292	160
2	51834639	293	75
2	52045225	294	116
2	52255543	295	124
2	52465256	296	139
2	52674380	297	96
2	52885307	298	127
2	53095282	299	93
2	53306165	300	87
2	53517060	301	114
2	53727389	302	158
2	53937373	303	75
2	54148368	304	97
2	54359435	305	130
2	54569414	306	123
2	54779615	307	93
2	54990070	308	53
2	55201764	309	98
2	55411860	310	110
2	55621455	311	116
2	55832030	312	137
2	56040827	313	92
2	56251793	314	57
2	56462785	315	122
2	56673135	316	130
2	56883593	317	122
2	57093166	318	85
2	57304033	319	108
2	57514640	320	149
2	57723710	321	96
2	57934301	322	120
2	58144019	323	54
2	58355373	324	136
2	58565607	325	82
2	58777095	326	85
2	58987785	327	122
2	59197755	328	81
2	59408381	329	155
2	59618055	330	60
2	59828808	331	104
2	60039948	332	117
2	60250380	333	147
2	60459176	334	86
2	60669438	335	90
2	60880899	336	221
2	61088903	337	91
2	61299390	338	80
2	61510346	339	177
2	61719455	340	109
2	61929923	341	34
2	62142424	342	139
2	62352312	343	88
2	62562897	344	70
2	62775074	345	236
2	62983340	346	81
2	63194065	347	126
2	63403871	348	118
2	63614254	349	74
2	63826041	350	134
2	64035480	351	41
2	64247465	352	158
2	64456748	353	86
2	64667432	354	63
2	64879306	355	132
2	65089269	356	115
2	65300108	357	92
2	65510710	358	117
2	65720621	359	54
2	65932210	360	115
2	66142222	361	100
2	66352944	362	68
2	66564875	363	164
2	66774514	364	163
2	66983613	365	123
2	67194199	366	121
2	67404817	367	79
2	67616098	368	113
2	67826552	369	97
2	68037115	370	112
2	68247880	371	82
2	68458306	372	114
2	68668179	373	125
2	68877874	374	76
2	69088885	375	122
2	69298748	376	136
2	69508404	377	70
2	69719405	378	109
2	69929967	379	96
2	70140182	380	159
2	70349078	381	100
2	70559538	382	118
2	70768991	383	113
2	70978950	384	103
2	71189390	385	176
2	71398760	386	124
2	71608756	387	126
2	71818745	388	106
2	72028707	389	84
2	72240171	390	145
2	72449866	391	100
2	72660737	392	123
2	72871033	393	170
2	73079534	394	68
2	73290847	395	151
2	73500044	396	88
2	73711142	397	87
2	73921964	398	97
2	74132343	399	124
2	74342230	400	68
2	74553514	401	136
2	74762834	402	150
2	74972024	403	122
2	75182247	404	202
2	75389760	405	66
2	75601100	406	146
2	75810548	407	88
2	76021115	408	158
2	76231096	409	145
2	76440391	410	85
2	76651118	411	128
2	76860868	412	96
2	77071265	413	78
2	77282297	414	108
2	77493262	415	110
2	77702977	416	83
2	77913914	417	59
2	78124946	418	130
2	78335052	419	135
2	78544608	420	85
2	78755901	421	109
2	78967012	422	152
2	79176217	423	109
2	79386723	424	133
2	79597325	425	142
2	79807717	426	122
2	80018079	427	129
2	80227818	428	100
2	80438538	429	105
2	80649141	430	116
2	80858987	431	45
2	81070437	432	98
2	81281309	433	151
2	81490787	434	77
2	81702489	435	126
2	81912186	436	86
2	82123960	437	198
2	82332211	438	90
2	82543431	439	113
2	82754029	440	134
2	82964744	441	109
2	83175377	442	85
2	83385408	443	150
2	83594515	444	117
2	83804458	445	58
2	84016030	446	115
2	84226744	447	93
2	84438052	448	92
2	84648620	449	78
2	84859587	450	151
2	85068699	451	104
2	85279139	452	101
2	85489371	453	162
2	85698268	454	111
2	85908185	455	107
2	86118337	456	106
2	86328940	457	163
2	86538321	458	147
2	86747536	459	140
2	86957301	460	106
2	87167489	461	75
2	87378334	462	153
2	87588026	463	78
2	87799210	464	74
2	88010273	465	151
2	88219286	466	121
2	88429545	467	137
2	88639061	468	121
2	88849016	469	111
2	89059042	470	85
2	89269935	471	102
2	89480283	472	74
2	89691500	473	87
2	89902391	474	153
2	90111993	475	85
2	90322717	476	85
2	90533044	477	143
2	90742879	478	110
2	90953233	479	101
2	91164114	480	118
2	91374271	481	72
2	91585525	482	152
2	91794829	483	111
2	92006215	484	90
2	92217559	485	139
2	92427730	486	112
2	92638918	487	91
2	92849742	488	55
2	93061392	489	162
2	93270985	490	59
2	93482502	491	172
2	93691631	492	120
2	93901064	493	117
2	94111114	494	159
2	94320475	495	72
2	94532099	496	77
2	94743057	497	90
2	94954350	498	107
2	95164517	499	87
2	95375125	500	104
2	95586106	501	74
2	95797901	502	180
2	96006653	503	109
2	96216888	504	156
2	96426142	505	150
2	96635606	506	129
2	96845954	507	101
2	97056159	508	57
2	97267957	509	124
2	97478127	510	82
2	97689295	511	76
2	97900535	512	77
2	98111568	513	119
2	98321844	514	147
2	98531544	515	77
2	98742624	516	131
2	98952765	517	121
2	99163371	518	99
2	99373857	519	116
2	99583230	520	90
2	99794077	521	51
2	100005618	522	94
2	100216641	523	107
2	100427202	524	137
2	100636519	525	53
2	100848169	526	160
2	101057437	527	108
2	101268240	528	84
2	101478348	529	69
2	101689722	530	84
2	101900446	531	154
2	102110376	532	112
2	102320195	533	151
2	102529793	534	119
2	102739600	535	82
2	102950680	536	135
2	103160564	537	90
2	103370846	538	141
2	103580930	539	118
2	103790315	540	117
2	104000613	541	129
2	104210185	542	126
2	104419605	543	67
2	104630783	544	65
2	104842095	545	111
2	105052534	546	146
2	105261914	547	158
2	105471901	548	77
2	105682331	549	118
2	105892144	550	74
2	106103496	551	94
2	106314216	552	115
2	106524348	553	79
2	106735787	554	130
2	106945499	555	102
2	107155715	556	97
2	107365635	557	87
2	107576129	558	138
2	107785919	559	119
2	107995917	560	78
2	108206711	561	155
2	108416504	562	122
2	108626881	563	77
2	108837659	564	132
2	109047345	565	190
2	109256330	566	76
2	109467008	567	94
2	109678005	568	142
2	109887057	569	131
2	110096397	570	44
2	110308920	571	108
2	110518803	572	138
2	110728381	573	88
2	110939558	574	131
2	111149604	575	96
2	111360317	576	78
2	111571327	577	84
2	111781819	578	129
2	111991786	579	125
2	112202027	580	140
2	112411302	581	129
2	112620901	582	133
2	112830209	583	60
2	113041720	584	165
2	113251015	585	90
2	113461108	586	94
2	113671474	587	80
2	113882184	588	168
2	114090599	589	120
2	114301280	590	140
2	114511317	591	67
2	114722465	592	96
2	114932684	593	78
2	115143983	594	128
2	115354424	595	92
2	115565238	596	92
2	115775967	597	107
2	115986561	598	168
2	116196282	599	113
2	116406288	600	124
2	116616797	601	116
2	116827497	602	108
2	117037418	603	78
2	117248699	604	148
2	117458533	605	113
2	117668778	606	94
2	117879688	607	108
2	118090006	608	91
2	118300962	609	133
2	118511236	610	81
2	118722616	611	104
2	118933482	612	75
2	119143960	613	59
2	119355389	614	150
2	119565117	615	67
2	119776845	616	145
2	119987030	617	84
2	120198119	618	125
2	120409053	619	150
2	120619248	620	108
2	120830062	621	63
2	121041380	622	144
2	121251138	623	92
2	121462088	624	106
2	121672883	625	93
2	121883387	626	61
2	122094845	627	101
2	122305410	628	145
2	122515597	629	127
2	122725545	630	111
2	122936523	631	88
2	123147463	632	136
2	123356961	633	94
2	123568859	634	143
2	123778553	635	143
2	123989221	636	112
2	124200142	637	119
2	124409905	638	153
2	124620316	639	111
2	124830734	640	40
2	125042530	641	88
2	125253564	642	69
2	125465881	643	142
2	125675970	644	128
2	125886184	645	82
2	126096971	646	65
2	126309202	647	84
2	126520012	648	101
2	126730164	649	72
2	126940756	650	111
2	127151225	651	113
2	127361852	652	110
2	127571831	653	37
2	127783423	654	89
2	127994028	655	105
2	128204949	656	84
2	128415891	657	64
2	128627523	658	138
2	128837345	659	80
2	129047787	660	90
2	129258583	661	148
2	129468169	662	113
2	129678571	663	87
2	129888751	664	95
2	130099165	665	74
2	130309448	666	137
2	130519519	667	138
2	130728918	668	91
2	130939989	669	58
2	131151403	670	128
2	131361336	671	104
2	131571774	672	112
2	131782005	673	69
2	131993333	674	155
2	132203093	675	89
2	132413839	676	96
2	132624764	677	72
2	132836340	678	110
2	133047158	679	128
2	133257260	680	78
2	133468921	681	94
2	133679772	682	100
2	133890197	683	73
2	134101520	684	142
2	134310899	685	96
2	134521625	686	75
2	134732032	687	77
2	134943565	688	176
2	135153099	689	102
2	135364065	690	131
2	135574428	691	88