version 2
run PerfectCC-0-20100906-00:12:26-5532
attr configname PerfectCC
attr datetime 20100906-00:12:26
attr experiment PerfectCC
attr inifile D:/Developement/Oversim2/multic/simulations/omnetpp.ini
attr iterationvars $mpeers=9
attr iterationvars2 "$mpeers=9, $repetition=0"
attr measurement $mpeers=9
attr mpeers 9
attr network oversim.underlay.simpleunderlay.SimpleUnderlayNetwork
attr processid 5532
attr repetition 0
attr replication #0
attr resultdir results
attr runnumber 0
attr seedset 0

vector 1  SimpleUnderlayNetwork.globalObserver.globalStatistics  incoming_bytes  ETV
vector 2  SimpleUnderlayNetwork.globalObserver.globalStatistics  drops  ETV
vector 3  SimpleUnderlayNetwork.globalObserver.globalStatistics  delayed_acks  ETV
vector 4  SimpleUnderlayNetwork.globalObserver.globalStatistics  timetotimeouts  ETV
vector 5  SimpleUnderlayNetwork.globalObserver.globalStatistics  rate  ETV
vector 6  SimpleUnderlayNetwork.globalObserver.globalStatistics  "GlobalNodeList: Number of nodes"  ETV
vector 7  SimpleUnderlayNetwork.globalObserver.globalStatistics  "GlobalNodeList: Number of bootstrapped malicious nodes"  ETV
1	6161988	158	41817
1	6203602	159	43831
1	6244139	160	41817
1	6285777	161	43990
1	6326132	162	41128
1	6367548	163	43619
1	6408810	164	43195
1	6450069	165	43089
1	6491024	166	42506
1	6532653	167	44149
1	6574007	168	43195
1	6615234	169	43089
1	6656477	170	43142
1	6697898	171	43619
1	6739191	172	43248
1	6780188	173	42930
1	6821768	174	43831
1	6862196	175	41393
1	6903217	176	42665
1	6944579	177	43513
1	6985407	178	42453
1	7027217	179	44149
1	7067274	180	40598
1	7108784	181	43672
1	7149876	182	42877
1	7191214	183	43354
1	7232218	184	42612
1	7273499	185	43036
1	7314407	186	42294
1	7355648	187	43248
1	7396926	188	43407
1	7438039	189	42930
1	7479206	190	42824
1	7520187	191	42400
1	7561240	192	42665
1	7602082	193	42453
1	7643005	194	42718
1	7684711	195	44255
1	7725871	196	42771
1	7766816	197	42718
1	7807637	198	41976
1	7849064	199	43672
1	7890182	200	42665
1	7930820	201	41870
1	7972018	202	42983
1	8013186	203	42930
1	8054318	204	43195
1	8095418	205	42983
1	8136788	206	43619
1	8178453	207	43884
1	8219426	208	42506
1	8260819	209	43513
1	8300950	210	40598
1	8342135	211	43089
1	8382851	212	42135
1	8424067	213	43195
1	8465070	214	42612
1	8505816	215	42188
1	8546701	216	42135
1	8588266	217	44202
1	8629423	218	42824
1	8669974	219	41764
1	8711293	220	43089
1	8752137	221	42453
1	8793262	222	43301
1	8834906	223	43619
1	8875731	224	42082
1	8917184	225	43831
1	8958298	226	43036
1	8999077	227	41923
1	9040282	228	43195
1	9081469	229	42824
1	9122595	230	42930
1	9163831	231	43195
1	9204818	232	42506
1	9245968	233	43089
1	9287107	234	42983
1	9328342	235	42877
1	9369286	236	42824
1	9410259	237	42771
1	9451661	238	43407
1	9492837	239	43142
1	9534172	240	43301
1	9575608	241	43566
1	9616758	242	42983
1	9658102	243	43195
1	9699128	244	42824
1	9739646	245	41499
1	9781107	246	43778
1	9822285	247	42983
1	9863317	248	42877
1	9903741	249	41287
1	9944741	250	42453
1	9985840	251	43036
1	10027382	252	43884
1	10068649	253	43142
1	10109284	254	41817
1	10150325	255	42718
1	10191257	256	42347
1	10232278	257	42877
1	10273457	258	43142
1	10313851	259	40916
1	10355265	260	43937
1	10396332	261	42506
1	10437220	262	42559
1	10478650	263	43407
1	10519508	264	42453
1	10560847	265	43513
1	10602396	266	43884
1	10643476	267	42771
1	10685109	268	44096
1	10726359	269	42930
1	10767320	270	42718
1	10808655	271	43619
1	10849948	272	43089
1	10890686	273	41711
1	10931942	274	43407
1	10973336	275	43513
1	11014202	276	42241
1	11055541	277	43566
1	11096647	278	43036
1	11137592	279	42241
1	11178981	280	43672
1	11220244	281	43248
1	11261362	282	42877
1	11302691	283	43354
1	11343886	284	43195
1	11385019	285	42612
1	11426408	286	43566
1	11467986	287	43831
1	11508930	288	42400
1	11549868	289	42453
1	11591168	290	43513
1	11632567	291	43407
1	11673675	292	42983
1	11715015	293	43407
1	11755985	294	42718
1	11797311	295	43354
1	11838490	296	43089
1	11878967	297	41605
1	11920546	298	43566
1	11960925	299	41181
1	12002524	300	44096
1	12043740	301	43036
1	12084850	302	43089
1	12125999	303	42665
1	12166829	304	42294
1	12208221	305	43354
1	12249552	306	43460
1	12290750	307	43142
1	12332005	308	43513
1	12373163	309	42718
1	12414358	310	43248
1	12455761	311	43407
1	12497019	312	43301
1	12538234	313	42877
1	12578811	314	41817
1	12620458	315	43937
1	12661712	316	43195
1	12702903	317	42877
1	12744032	318	43036
1	12784946	319	42400
1	12826229	320	43142
1	12867434	321	43407
1	12908623	322	42877
1	12949520	323	42135
1	12990654	324	43460
1	13032527	325	44361
1	13073576	326	42400
1	13114909	327	43513
1	13155975	328	42506
1	13196889	329	42718
1	13237849	330	42506
1	13278993	331	42824
1	13319613	332	41976
1	13361080	333	43672
1	13402126	334	42824
1	13443436	335	43248
1	13484604	336	42983
1	13526075	337	43778
1	13567210	338	42718
1	13607848	339	41870
1	13649205	340	43407
1	13690121	341	42135
1	13731109	342	42877
1	13772489	343	43937
1	13813705	344	42930
1	13855204	345	43884
1	13896827	346	43937
1	13937348	347	41340
1	13978626	348	43407
1	14020238	349	43937
1	14061533	350	42930
1	14102311	351	42135
1	14143103	352	42400
1	14184464	353	43354
1	14225097	354	41870
1	14266500	355	43460
1	14307813	356	43460
1	14348839	357	42824
1	14390180	358	43248
1	14431095	359	42400
1	14472296	360	43195
1	14513329	361	42824
1	14554975	362	43884
1	14595615	363	41552
1	14637110	364	44043
1	14678329	365	43248
1	14719865	366	43672
1	14760885	367	42241
1	14802084	368	43301
1	14843231	369	42877
1	14884724	370	43672
1	14925030	371	41234
1	14966367	372	43195
1	15006888	373	41658
1	15048399	374	43778
1	15089136	375	41817
1	15130478	376	43513
1	15171691	377	42983
1	15213055	378	43195
1	15254038	379	42559
1	15295138	380	43036
1	15336332	381	42930
1	15377286	382	42718
1	15418260	383	42718
1	15459116	384	42241
1	15500064	385	42612
1	15541115	386	42930
1	15582153	387	42559
1	15623158	388	42824
1	15664369	389	43036
1	15705435	390	42612
1	15746777	391	43513
1	15787800	392	42559
1	15828857	393	42718
1	15869598	394	42241
1	15911137	395	43884
1	15951730	396	41446
1	15992155	397	41552
1	16033494	398	43460
1	16074744	399	43089
1	16116269	400	43884
1	16157211	401	42506
1	16198399	402	43142
1	16239457	403	42718
1	16280887	404	43725
1	16322709	405	44573
1	16364084	406	43248
1	16405021	407	42506
1	16446048	408	42506
1	16487102	409	42771
1	16528072	410	42665
1	16569288	411	43301
1	16610255	412	42453
1	16651613	413	43619
1	16693248	414	44096
1	16734256	415	42453
1	16775678	416	43672
1	16816858	417	42983
1	16858262	418	43354
1	16899021	419	42029
1	16940416	420	43513
1	16981290	421	41976
1	17022422	422	43248
1	17063723	423	43513
1	17104885	424	42877
1	17145921	425	42877
1	17186888	426	42400
1	17228301	427	43513
1	17269111	428	42241
1	17309779	429	42029
1	17351130	430	43566
1	17392669	431	43513
1	17433150	432	41499
1	17473934	433	42294
1	17514587	434	41446
1	17555764	435	43089
1	17596691	436	42877
1	17638373	437	43884
1	17679024	438	41764
1	17720201	439	43566
1	17761715	440	43725
1	17802936	441	42877
1	17843179	442	40863
1	17884720	443	43884
1	17925411	444	41817
1	17967017	445	44043
1	18007655	446	41605
1	18048549	447	42347
1	18089618	448	43036
1	18130895	449	43036
1	18171535	450	41817
1	18212841	451	43301
1	18253748	452	42400
1	18295003	453	43354
1	18335771	454	42082
1	18377025	455	43248
1	18417860	456	42188
1	18458998	457	43195
1	18500415	458	43566
1	18541086	459	41817
1	18582438	460	43619
1	18623523	461	42612
1	18664892	462	43672
1	18706496	463	44043
1	18747422	464	42453
1	18788790	465	43195
1	18829779	466	42559
1	18871427	467	43990
1	18912845	468	43354
1	18954334	469	43937
1	18995738	470	43566
1	19036612	471	42294
1	19078217	472	44043
1	19119789	473	43937
1	19160832	474	42665
1	19202245	475	43513
1	19243235	476	42400
1	19283744	477	41393
1	19324960	478	43354
1	19366330	479	43460
1	19407324	480	42612
1	19448495	481	43036
1	19489673	482	42930
1	19530699	483	42559
1	19571949	484	43460
1	19613030	485	42665
1	19653882	486	42294
1	19695300	487	43513
1	19736224	488	42453
1	19777456	489	43195
1	19818706	490	43036
1	19859338	491	42029
1	19900855	492	43672
1	19942017	493	42877
1	19982649	494	42135
1	20024142	495	43831
1	20065012	496	42082
1	20106231	497	43195
1	20147506	498	43248
1	20188482	499	42612
1	20229934	500	43460
1	20270599	501	41817
1	20311496	502	42453
1	20352893	503	43672
1	20393848	504	42718
1	20435113	505	43195
1	20476518	506	43513
1	20517191	507	41711
1	20558311	508	43195
1	20599861	509	43566
1	20640444	510	41446
1	20681687	511	43566
1	20723090	512	43460
1	20764244	513	43089
1	20805116	514	42294
1	20846509	515	43619
1	20887874	516	43407
1	20929102	517	43195
1	20969830	518	41923
1	21011058	519	43195
1	21052539	520	43831
1	21093818	521	43195
1	21135027	522	43036
1	21176336	523	43354
1	21217215	524	42347
1	21258261	525	42453
1	21299440	526	43142
1	21340444	527	42718
1	21381791	528	43354
1	21422918	529	42824
1	21463652	530	42082
1	21504354	531	42188
1	21545691	532	43725
1	21586716	533	42559
1	21628055	534	43513
1	21669696	535	43725
1	21710436	536	42082
1	21751820	537	43301
1	21792668	538	42241
1	21833702	539	43036
1	21874888	540	43036
1	21916057	541	42824
1	21957441	542	43354
1	21998713	543	43195
1	22039756	544	42930
1	22080934	545	43036
1	22122235	546	43195
1	22163500	547	43301
1	22204652	548	43248
1	22245846	549	42983
1	22286800	550	42612
1	22327937	551	42718
1	22368670	552	42188
1	22410178	553	43672
1	22451602	554	43672
1	22492841	555	43142
1	22534203	556	43407
1	22575095	557	42506
1	22616222	558	42983
1	22657707	559	43566
1	22698693	560	42453
1	22740084	561	43513
1	22780724	562	42135
1	22822358	563	43937
1	22863285	564	42082
1	22904464	565	43407
1	22945747	566	43248
1	22986866	567	42930
1	23027968	568	42771
1	23069205	569	43195
1	23110119	570	42135
1	23151009	571	42665
1	23192374	572	43619
1	23233545	573	43195
1	23274798	574	43195
1	23316212	575	43407
1	23357268	576	42665
1	23398502	577	43248
1	23439605	578	42824
1	23480967	579	43195
1	23521908	580	42453
1	23563201	581	43513
1	23604530	582	43407
1	23645728	583	42983
1	23686867	584	43036
1	23727935	585	42718
1	23768911	586	42665
1	23810245	587	43566
1	23851449	588	43301
1	23892564	589	42665
1	23933409	590	42294
1	23974890	591	43619
1	24016169	592	43089
1	24057056	593	42135
1	24098156	594	43301
1	24139546	595	43354
1	24181054	596	43884
1	24222552	597	43831
1	24263895	598	43301
1	24305103	599	43089
1	24346473	600	43354
1	24387246	601	41923
1	24428666	602	43566
1	24470117	603	43672
1	24511708	604	43778
1	24552689	605	42665
1	24594162	606	43513
1	24635065	607	42612
1	24676932	608	44467
1	24717967	609	42665
1	24759119	610	42930
1	24799560	611	41393
1	24840947	612	43460
1	24881395	613	41393
1	24922276	614	42612
1	24963760	615	43672
1	25004095	616	40810
1	25045651	617	44202
1	25087061	618	43460
1	25128115	619	42930
1	25169087	620	42453
1	25209385	621	41022
1	25251014	622	44149
1	25291344	623	41181
1	25332856	624	43831
1	25373461	625	41552
1	25414754	626	43354
1	25456036	627	43142
1	25496842	628	42400
1	25538143	629	43195
1	25578609	630	41340
1	25620162	631	44043
1	25661191	632	42665
1	25702633	633	43460
1	25743754	634	42824
1	25785181	635	43566
1	25825941	636	42188
1	25867615	637	44414
1	25908577	638	42347
1	25950155	639	43672
1	25991600	640	43566
1	26032578	641	42453
1	26073807	642	43354
1	26114618	643	42241
1	26155794	644	43036
1	26197219	645	43513
1	26238663	646	43672
1	26279779	647	42771
1	26321329	648	43725
1	26361582	649	41022
1	26402957	650	43407
1	26443717	651	42188
1	26485037	652	43566
1	26526546	653	43778
1	26567286	654	41605
1	26608707	655	43725
1	26650108	656	43725
1	26691400	657	43142
1	26732354	658	42294
1	26772861	659	41340
1	26814147	660	43407
1	26855474	661	43460
1	26896607	662	43036
1	26938299	663	44096
1	26979514	664	42930
1	27020709	665	43089
1	27062085	666	43460
1	27103266	667	43248
1	27144609	668	43513
1	27185756	669	42983
1	27226907	670	42983
1	27268154	671	43142
1	27309282	672	42930
1	27350656	673	43407
1	27392416	674	44361
1	27433703	675	43301
1	27475352	676	44202
1	27516675	677	43089
1	27557916	678	43036
1	27599305	679	43566
1	27640292	680	42612
1	27681525	681	42983
1	27722278	682	42135
1	27763620	683	43513
1	27804178	684	41446
1	27845563	685	43566
1	27886775	686	43089
1	27928088	687	43354
1	27969691	688	43937
1	28010608	689	42506
1	28051757	690	42983
1	28093092	691	43513
1	28134457	692	43725
1	28175657	693	42824
1	28216598	694	42559
1	28257976	695	43354
1	28298553	696	41605
1	28340066	697	43778
1	28380579	698	41446
1	28421860	699	43566
1	28463109	700	42824
1	28503934	701	41923
1	28545303	702	43778
1	28586597	703	43566
1	28627508	704	42453
1	28668802	705	43248
1	28709827	706	42665
1	28751046	707	42877
1	28792107	708	42824
1	28833449	709	43460
1	28874191	710	41817
1	28915510	711	43354
1	28956523	712	42718
1	28997274	713	42294
1	29038736	714	43460
1	29079863	715	43089
1	29120891	716	42612
1	29162103	717	43089
1	29203388	718	43195
1	29244560	719	43195
1	29285913	720	43301
1	29327249	721	43407
1	29368377	722	42771
1	29409900	723	43884
1	29450579	724	42188
1	29492197	725	43831
1	29533421	726	42930
1	29573875	727	41287
1	29615019	728	43195
1	29656401	729	43460
1	29696646	730	40810
1	29737916	731	43301
1	29779012	732	42665
1	29820072	733	42877
1	29860871	734	42400
1	29902051	735	43301
1	29943448	736	43460
1	29984538	737	42824
1	30025861	738	43301
1	30066818	739	42347
1	30108002	740	43142
1	30148708	741	42188
1	30189873	742	42665
1	30230312	743	41393
1	30271750	744	43831
1	30312746	745	42559
1	30354522	746	44467
1	30395497	747	42718
1	30436636	748	42983
1	30478302	749	43831
1	30518996	750	42135
1	30560380	751	43301
1	30601118	752	42188
1	30642109	753	42506
1	30682940	754	42400
1	30724160	755	43513
1	30765487	756	43301
1	30806178	757	41711
1	30847255	758	43089
1	30888669	759	43619
1	30929944	760	43036
1	30971178	761	42983
1	31012414	762	43301
1	31053022	763	41552
1	31094211	764	42930
1	31135558	765	43619
1	31176654	766	42983
1	31218193	767	43778
1	31259707	768	43619
1	31301074	769	43460
1	31341734	770	41976
1	31382755	771	42665
1	31423516	772	42188
1	31464867	773	43513
1	31505848	774	42506
1	31547005	775	43089
1	31588197	776	43195
1	31629429	777	43036
1	31670462	778	42930
1	31711354	779	42241
1	31752352	780	43089
1	31793771	781	43195
1	31834313	782	41287
1	31875535	783	43407
1	31916767	784	43142
1	31957857	785	42930
1	31998728	786	42294
1	32040203	787	43725
1	32081843	788	43937
1	32122979	789	42877
1	32163937	790	42718
1	32205206	791	43142
1	32246498	792	43301
1	32287992	793	43884
1	32329320	794	43195
1	32370932	795	43831
1	32412155	796	42824
1	32453336	797	43036
1	32494655	798	43142
1	32535269	799	42135
1	32576880	800	43831
1	32617391	801	41393
1	32658468	802	42930
1	32699878	803	43672
1	32740946	804	43036
1	32782204	805	43195
1	32823541	806	43460
1	32864913	807	43248
1	32905432	808	41446
1	32946753	809	43619
1	32987317	810	41446
1	33028843	811	43566
1	33069459	812	41764
1	33110575	813	42930
1	33151760	814	43089
1	33192679	815	42506
1	33234120	816	43619
1	33275247	817	42930
1	33316434	818	43195
1	33357935	819	43407
1	33397947	820	40386
1	33439379	821	43725
1	33480571	822	43089
1	33521716	823	43036
1	33562519	824	42135
1	33603723	825	42983
1	33644142	826	41340
1	33684987	827	42347
1	33726607	828	44096
1	33768028	829	43460
1	33809336	830	43354
1	33850717	831	42983
1	33891426	832	41976
1	33932695	833	43407
1	33973981	834	43354
1	34014766	835	41976
1	34055794	836	42877
1	34097457	837	44149
1	34138868	838	43566
1	34179985	839	43036
1	34221382	840	43513
1	34261964	841	41446
1	34302760	842	42241
1	34343972	843	43142
1	34385265	844	43248
1	34426468	845	43036
1	34467877	846	43672
1	34509000	847	42824
1	34550186	848	43089
1	34590819	849	41711
1	34632414	850	43884
1	34673351	851	42241
1	34714374	852	42983
1	34755043	853	41923
1	34796218	854	43142
1	34837424	855	42983
1	34878606	856	43089
1	34919651	857	42612
1	34960426	858	42188
1	35001691	859	43301
1	35041987	860	40863
1	35083235	861	43354
1	35124733	862	43778
1	35165686	863	42506
1	35206823	864	42824
1	35247698	865	42453
1	35288726	866	42930
1	35330356	867	44096
1	35371540	868	42877
1	35412375	869	42294
1	35453706	870	43301
1	35495030	871	43301
1	35535196	872	40969
1	35576559	873	43407
1	35617486	874	42294
1	35658584	875	43036
1	35699783	876	42983
1	35741392	877	43990
1	35782458	878	42983
1	35823644	879	42771
1	35864617	880	42771
1	35906114	881	43460
1	35946627	882	41499
1	35987877	883	43460
1	36029306	884	43619
1	36070305	885	42718
1	36111515	886	42983
1	36152614	887	43036
1	36193599	888	42559
1	36234734	889	42983
1	36276079	890	43513
1	36317332	891	42983
1	36358762	892	43513
1	36400274	893	43725
1	36440901	894	41923
1	36482386	895	43831
1	36523291	896	42347
1	36564400	897	42612
1	36605380	898	42665
1	36646054	899	42241
1	36687066	900	42400
1	36728234	901	42983
1	36769535	902	43248
1	36810242	903	41870
1	36851568	904	43566
1	36892719	905	42824
1	36933896	906	43036
1	36975028	907	43301
1	37016264	908	43301
1	37057441	909	42824
1	37098971	910	43937
1	37140307	911	43195
1	37181634	912	43142
1	37222556	913	42718
1	37263760	914	42983
1	37304995	915	42983
1	37345710	916	42241
1	37386942	917	43248
1	37427860	918	42082
1	37468624	919	42294
1	37509130	920	41817
1	37550943	921	44255
1	37591338	922	41499
1	37632789	923	43778
1	37673372	924	41711
1	37714874	925	43884
1	37756042	926	42983
1	37797666	927	43725
1	37838645	928	42718
1	37879897	929	43513
1	37921601	930	43725
1	37962786	931	42877
1	38004334	932	43884
1	38045950	933	43778
1	38086788	934	42453
1	38128411	935	43831
1	38169623	936	42877
1	38210816	937	43354
1	38252343	938	43619
1	38292849	939	41181
1	38333816	940	42612
1	38374708	941	42559
1	38416056	942	43301
1	38457149	943	42983
1	38498242	944	42877
1	38539408	945	42930
1	38580581	946	43195
1	38622160	947	43778
1	38662943	948	42188
1	38703908	949	42506
1	38743976	950	40545
1	38785296	951	43301
1	38826438	952	42877
1	38867727	953	43354
1	38909081	954	43354
1	38949904	955	42241
1	38990810	956	42665
1	39032073	957	42983
1	39073375	958	43301
1	39115021	959	44043
1	39155917	960	42241
1	39196704	961	42400
1	39238326	962	44043
1	39279700	963	43460
1	39320881	964	43089
1	39362020	965	42877
1	39403356	966	43354
1	39444227	967	42188
1	39485172	968	42559
1	39526392	969	42983
1	39567175	970	42188
1	39608735	971	44202
1	39649552	972	42029
1	39690898	973	43513
1	39732065	974	43195
1	39773776	975	44043
1	39814616	976	42135
1	39855735	977	43036
1	39896999	978	42983
1	39938616	979	44202
1	39979457	980	42241
1	40020736	981	43354
1	40061548	982	42188
1	40102694	983	42983
1	40144386	984	44149
1	40185444	985	42612
1	40226838	986	43619
1	40268418	987	43831
1	40309601	988	43142
1	40350569	989	42559
1	40391935	990	43407
1	40432992	991	42718
1	40474650	992	44043
1	40515248	993	41870
1	40556516	994	43195
1	40597534	995	42665
1	40638062	996	41870
1	40679520	997	43566
1	40720566	998	42718
1	40761736	999	42983
2	6161988	158	0
2	6203602	159	32
2	6244139	160	4
2	6285777	161	31
2	6326132	162	10
2	6367548	163	11
2	6408810	164	12
2	6450069	165	10
2	6491024	166	11
2	6532653	167	19
2	6574007	168	7
2	6615234	169	7
2	6656477	170	4
2	6697898	171	13
2	6739191	172	18
2	6780188	173	3
2	6821768	174	25
2	6862196	175	9
2	6903217	176	8
2	6944579	177	18
2	6985407	178	3
2	7027217	179	45
2	7067274	180	1
2	7108784	181	27
2	7149876	182	4
2	7191214	183	11
2	7232218	184	17
2	7273499	185	38
2	7314407	186	4
2	7355648	187	8
2	7396926	188	9
2	7438039	189	4
2	7479206	190	30
2	7520187	191	11
2	7561240	192	12
2	7602082	193	17
2	7643005	194	2
2	7684711	195	18
2	7725871	196	4
2	7766816	197	36
2	7807637	198	8
2	7849064	199	20
2	7890182	200	34
2	7930820	201	9
2	7972018	202	19
2	8013186	203	5
2	8054318	204	7
2	8095418	205	5
2	8136788	206	12
2	8178453	207	20
2	8219426	208	3
2	8260819	209	28
2	8300950	210	8
2	8342135	211	29
2	8382851	212	4
2	8424067	213	9
2	8465070	214	16
2	8505816	215	27
2	8546701	216	0
2	8588266	217	6
2	8629423	218	32
2	8669974	219	8
2	8711293	220	27
2	8752137	221	9
2	8793262	222	1
2	8834906	223	33
2	8875731	224	8
2	8917184	225	0
2	8958298	226	9
2	8999077	227	15
2	9040282	228	13
2	9081469	229	10
2	9122595	230	11
2	9163831	231	16
2	9204818	232	13
2	9245968	233	8
2	9287107	234	15
2	9328342	235	16
2	9369286	236	15
2	9410259	237	12
2	9451661	238	12
2	9492837	239	4
2	9534172	240	7
2	9575608	241	20
2	9616758	242	2
2	9658102	243	9
2	9699128	244	38
2	9739646	245	1
2	9781107	246	12
2	9822285	247	5
2	9863317	248	22
2	9903741	249	34
2	9944741	250	2
2	9985840	251	16
2	10027382	252	0
2	10068649	253	36
2	10109284	254	7
2	10150325	255	21
2	10191257	256	8
2	10232278	257	2
2	10273457	258	36
2	10313851	259	5
2	10355265	260	9
2	10396332	261	19
2	10437220	262	9
2	10478650	263	15
2	10519508	264	2
2	10560847	265	7
2	10602396	266	10
2	10643476	267	4
2	10685109	268	15
2	10726359	269	14
2	10767320	270	8
2	10808655	271	11
2	10849948	272	35
2	10890686	273	2
2	10931942	274	1
2	10973336	275	29
2	11014202	276	5
2	11055541	277	10
2	11096647	278	11
2	11137592	279	8
2	11178981	280	2
2	11220244	281	11
2	11261362	282	15
2	11302691	283	1
2	11343886	284	21
2	11385019	285	6
2	11426408	286	12
2	11467986	287	16
2	11508930	288	18
2	11549868	289	14
2	11591168	290	2
2	11632567	291	16
2	11673675	292	9
2	11715015	293	19
2	11755985	294	0
2	11797311	295	5
2	11838490	296	41
2	11878967	297	4
2	11920546	298	37
2	11960925	299	5
2	12002524	300	10
2	12043740	301	3
2	12084850	302	17
2	12125999	303	17
2	12166829	304	16
2	12208221	305	1
2	12249552	306	13
2	12290750	307	15
2	12332005	308	4
2	12373163	309	16
2	12414358	310	16
2	12455761	311	16
2	12497019	312	5
2	12538234	313	29
2	12578811	314	6
2	12620458	315	7
2	12661712	316	7
2	12702903	317	14
2	12744032	318	16
2	12784946	319	13
2	12826229	320	9
2	12867434	321	13
2	12908623	322	33
2	12949520	323	13
2	12990654	324	3
2	13032527	325	29
2	13073576	326	5
2	13114909	327	16
2	13155975	328	11
2	13196889	329	19
2	13237849	330	7
2	13278993	331	17
2	13319613	332	12
2	13361080	333	17
2	13402126	334	3
2	13443436	335	19
2	13484604	336	2
2	13526075	337	11
2	13567210	338	17
2	13607848	339	6
2	13649205	340	29
2	13690121	341	9
2	13731109	342	1
2	13772489	343	13
2	13813705	344	6
2	13855204	345	8
2	13896827	346	40
2	13937348	347	14
2	13978626	348	5
2	14020238	349	16
2	14061533	350	21
2	14102311	351	13
2	14143103	352	2
2	14184464	353	24
2	14225097	354	10
2	14266500	355	9
2	14307813	356	3
2	14348839	357	10
2	14390180	358	18
2	14431095	359	10
2	14472296	360	18
2	14513329	361	5
2	14554975	362	36
2	14595615	363	6
2	14637110	364	10
2	14678329	365	13
2	14719865	366	22
2	14760885	367	14
2	14802084	368	17
2	14843231	369	11
2	14884724	370	33
2	14925030	371	1
2	14966367	372	33
2	15006888	373	11
2	15048399	374	17
2	15089136	375	7
2	15130478	376	29
2	15171691	377	3
2	15213055	378	27
2	15254038	379	7
2	15295138	380	14
2	15336332	381	14
2	15377286	382	3
2	15418260	383	15
2	15459116	384	14
2	15500064	385	5
2	15541115	386	23
2	15582153	387	6
2	15623158	388	7
2	15664369	389	27
2	15705435	390	5
2	15746777	391	21
2	15787800	392	8
2	15828857	393	30
2	15869598	394	3
2	15911137	395	22
2	15951730	396	31
2	15992155	397	2
2	16033494	398	12
2	16074744	399	6
2	16116269	400	9
2	16157211	401	7
2	16198399	402	14
2	16239457	403	6
2	16280887	404	1
2	16322709	405	6
2	16364084	406	11
2	16405021	407	24
2	16446048	408	15
2	16487102	409	15
2	16528072	410	2
2	16569288	411	18
2	16610255	412	3
2	16651613	413	0
2	16693248	414	24
2	16734256	415	4
2	16775678	416	10
2	16816858	417	7
2	16858262	418	35
2	16899021	419	4
2	16940416	420	28
2	16981290	421	9
2	17022422	422	2
2	17063723	423	19
2	17104885	424	8
2	17145921	425	27
2	17186888	426	2
2	17228301	427	21
2	17269111	428	33
2	17309779	429	10
2	17351130	430	5
2	17392669	431	28
2	17433150	432	10
2	17473934	433	41
2	17514587	434	4
2	17555764	435	12
2	17596691	436	0
2	17638373	437	28
2	17679024	438	5
2	17720201	439	2
2	17761715	440	17
2	17802936	441	29
2	17843179	442	6
2	17884720	443	40
2	17925411	444	2
2	17967017	445	29
2	18007655	446	13
2	18048549	447	4
2	18089618	448	16
2	18130895	449	20
2	18171535	450	5
2	18212841	451	22
2	18253748	452	4
2	18295003	453	15
2	18335771	454	12
2	18377025	455	18
2	18417860	456	13
2	18458998	457	0
2	18500415	458	21
2	18541086	459	1
2	18582438	460	19
2	18623523	461	16
2	18664892	462	5
2	18706496	463	11
2	18747422	464	19
2	18788790	465	21
2	18829779	466	8
2	18871427	467	8
2	18912845	468	19
2	18954334	469	4
2	18995738	470	17
2	19036612	471	6
2	19078217	472	7
2	19119789	473	23
2	19160832	474	7
2	19202245	475	10
2	19243235	476	43
2	19283744	477	2
2	19324960	478	5
2	19366330	479	26
2	19407324	480	1
2	19448495	481	18
2	19489673	482	22
2	19530699	483	5
2	19571949	484	14
2	19613030	485	29
2	19653882	486	0
2	19695300	487	18
2	19736224	488	10
2	19777456	489	9
2	19818706	490	13
2	19859338	491	8
2	19900855	492	21
2	19942017	493	20
2	19982649	494	0
2	20024142	495	15
2	20065012	496	15
2	20106231	497	1
2	20147506	498	23
2	20188482	499	4
2	20229934	500	25
2	20270599	501	19
2	20311496	502	3
2	20352893	503	7
2	20393848	504	6
2	20435113	505	7
2	20476518	506	32
2	20517191	507	3
2	20558311	508	3
2	20599861	509	45
2	20640444	510	4
2	20681687	511	0
2	20723090	512	16
2	20764244	513	22
2	20805116	514	6
2	20846509	515	7
2	20887874	516	7
2	20929102	517	23
2	20969830	518	8
2	21011058	519	4
2	21052539	520	2
2	21093818	521	8
2	21135027	522	11
2	21176336	523	16
2	21217215	524	22
2	21258261	525	6
2	21299440	526	9
2	21340444	527	7
2	21381791	528	22
2	21422918	529	23
2	21463652	530	15
2	21504354	531	1
2	21545691	532	9
2	21586716	533	13
2	21628055	534	8
2	21669696	535	33
2	21710436	536	6
2	21751820	537	21
2	21792668	538	6
2	21833702	539	11
2	21874888	540	15
2	21916057	541	17
2	21957441	542	9
2	21998713	543	9
2	22039756	544	12
2	22080934	545	4
2	22122235	546	10
2	22163500	547	6
2	22204652	548	3
2	22245846	549	19
2	22286800	550	6
2	22327937	551	26
2	22368670	552	9
2	22410178	553	3
2	22451602	554	22
2	22492841	555	4
2	22534203	556	18
2	22575095	557	8
2	22616222	558	8
2	22657707	559	15
2	22698693	560	5
2	22740084	561	17
2	22780724	562	6
2	22822358	563	23
2	22863285	564	8
2	22904464	565	8
2	22945747	566	10
2	22986866	567	10
2	23027968	568	6
2	23069205	569	22
2	23110119	570	16
2	23151009	571	5
2	23192374	572	15
2	23233545	573	6
2	23274798	574	16
2	23316212	575	19
2	23357268	576	11
2	23398502	577	9
2	23439605	578	12
2	23480967	579	22
2	23521908	580	1
2	23563201	581	4
2	23604530	582	12
2	23645728	583	6
2	23686867	584	14
2	23727935	585	16
2	23768911	586	7
2	23810245	587	4
2	23851449	588	14
2	23892564	589	22
2	23933409	590	2
2	23974890	591	11
2	24016169	592	29
2	24057056	593	9
2	24098156	594	5
2	24139546	595	10
2	24181054	596	1
2	24222552	597	5
2	24263895	598	16
2	24305103	599	13
2	24346473	600	25
2	24387246	601	3
2	24428666	602	14
2	24470117	603	5
2	24511708	604	28
2	24552689	605	9
2	24594162	606	15
2	24635065	607	6
2	24676932	608	23
2	24717967	609	11
2	24759119	610	17
2	24799560	611	6
2	24840947	612	27
2	24881395	613	18
2	24922276	614	2
2	24963760	615	40
2	25004095	616	4
2	25045651	617	5
2	25087061	618	17
2	25128115	619	8
2	25169087	620	44
2	25209385	621	2
2	25251014	622	31
2	25291344	623	3
2	25332856	624	24
2	25373461	625	5
2	25414754	626	19
2	25456036	627	25
2	25496842	628	1
2	25538143	629	52
2	25578609	630	3
2	25620162	631	13
2	25661191	632	14
2	25702633	633	15
2	25743754	634	9
2	25785181	635	30
2	25825941	636	1
2	25867615	637	8
2	25908577	638	8
2	25950155	639	8
2	25991600	640	23
2	26032578	641	4
2	26073807	642	11
2	26114618	643	14
2	26155794	644	16
2	26197219	645	2
2	26238663	646	24
2	26279779	647	2
2	26321329	648	24
2	26361582	649	3
2	26402957	650	26
2	26443717	651	6
2	26485037	652	8
2	26526546	653	26
2	26567286	654	7
2	26608707	655	0
2	26650108	656	10
2	26691400	657	26
2	26732354	658	32
2	26772861	659	13
2	26814147	660	3
2	26855474	661	9
2	26896607	662	1
2	26938299	663	12
2	26979514	664	15
2	27020709	665	4
2	27062085	666	10
2	27103266	667	1
2	27144609	668	25
2	27185756	669	4
2	27226907	670	11
2	27268154	671	15
2	27309282	672	4
2	27350656	673	5
2	27392416	674	12
2	27433703	675	4
2	27475352	676	11
2	27516675	677	18
2	27557916	678	10
2	27599305	679	13
2	27640292	680	11
2	27681525	681	21
2	27722278	682	1
2	27763620	683	37
2	27804178	684	2
2	27845563	685	4
2	27886775	686	15
2	27928088	687	3
2	27969691	688	20
2	28010608	689	10
2	28051757	690	16
2	28093092	691	1
2	28134457	692	12
2	28175657	693	23
2	28216598	694	11
2	28257976	695	28
2	28298553	696	1
2	28340066	697	42
2	28380579	698	5
2	28421860	699	12
2	28463109	700	29
2	28503934	701	1
2	28545303	702	2
2	28586597	703	21
2	28627508	704	8
2	28668802	705	26
2	28709827	706	11
2	28751046	707	28
2	28792107	708	2
2	28833449	709	17
2	28874191	710	12
2	28915510	711	8
2	28956523	712	20
2	28997274	713	1
2	29038736	714	11
2	29079863	715	12
2	29120891	716	15
2	29162103	717	1
2	29203388	718	21
2	29244560	719	1
2	29285913	720	11
2	29327249	721	11
2	29368377	722	11
2	29409900	723	20