version 2
run PerfectCC-1-20100906-00:16:48-5540
attr configname PerfectCC
attr datetime 20100906-00:16:48
attr experiment PerfectCC
attr inifile D:/Developement/Oversim2/multic/simulations/omnetpp.ini
attr iterationvars $mpeers=19
attr iterationvars2 "$mpeers=19, $repetition=0"
attr measurement $mpeers=19
attr mpeers 19
attr network oversim.underlay.simpleunderlay.SimpleUnderlayNetwork
attr processid 5540
attr repetition 0
attr replication #0
attr resultdir results
attr runnumber 1
attr seedset 1

vector 1  SimpleUnderlayNetwork.globalObserver.globalStatistics  incoming_bytes  ETV
vector 2  SimpleUnderlayNetwork.globalObserver.globalStatistics  drops  ETV
vector 3  SimpleUnderlayNetwork.globalObserver.globalStatistics  delayed_acks  ETV
vector 4  SimpleUnderlayNetwork.globalObserver.globalStatistics  timetotimeouts  ETV
vector 5  SimpleUnderlayNetwork.globalObserver.globalStatistics  rate  ETV
vector 6  SimpleUnderlayNetwork.globalObserver.globalStatistics  "GlobalNodeList: Number of nodes"  ETV
vector 7  SimpleUnderlayNetwork.globalObserver.globalStatistics  "GlobalNodeList: Number of bootstrapped malicious nodes"  ETV
1	12529441	170	88245
1	12612661	171	87874
1	12696094	172	87821
1	12778786	173	86867
1	12862756	174	89411
1	12945704	175	87185
1	13029622	176	89358
1	13112020	177	86019
1	13195786	178	88934
1	13278444	179	86549
1	13362035	180	88934
1	13445035	181	86867
1	13528701	182	89199
1	13612132	183	88245
1	13695431	184	87821
1	13779068	185	88563
1	13862278	186	87927
1	13945994	187	88828
1	14028854	188	86867
1	14112238	189	88245
1	14195572	190	87927
1	14278694	191	87397
1	14361954	192	88192
1	14445700	193	89146
1	14529258	194	88563
1	14613010	195	88828
1	14696542	196	88192
1	14779340	197	86920
1	14863392	198	89676
1	14946612	199	87821
1	15030249	200	88881
1	15113637	201	87927
1	15196510	202	87238
1	15280083	203	88775
1	15363403	204	87874
1	15446960	205	88404
1	15530119	206	87662
1	15613745	207	88669
1	15696046	208	85860
1	15779902	209	89040
1	15862000	210	85012
1	15946095	211	89729
1	16029723	212	88457
1	16112860	213	87821
1	16196249	214	88404
1	16279820	215	88563
1	16362743	216	87185
1	16446149	217	88457
1	16529844	218	88828
1	16613111	219	87980
1	16696721	220	88192
1	16779569	221	86867
1	16863239	222	88934
1	16946413	223	87503
1	17030092	224	88828
1	17113231	225	87503
1	17196921	226	88881
1	17279815	227	87344
1	17363944	228	89835
1	17446553	229	86072
1	17530004	230	88563
1	17613272	231	87821
1	17696424	232	87715
1	17779603	233	87450
1	17862607	234	87556
1	17946124	235	88563
1	18029513	236	88139
1	18113022	237	88722
1	18195931	238	86602
1	18278954	239	87238
1	18361859	240	86973
1	18445246	241	88139
1	18528708	242	88404
1	18612158	243	88457
1	18695395	244	87927
1	18778830	245	88139
1	18861584	246	86708
1	18945268	247	88510
1	19028218	248	87079
1	19111837	249	88881
1	19195431	250	88563
1	19278651	251	87927
1	19362127	252	88192
1	19445322	253	88033
1	19529136	254	89199
1	19612806	255	88669
1	19696613	256	88934
1	19779118	257	86337
1	19862889	258	88987
1	19945831	259	86867
1	20029412	260	88934
1	20113067	261	88775
1	20195831	262	86496
1	20279877	263	89623
1	20363214	264	88192
1	20446519	265	87927
1	20529356	266	87026
1	20612398	267	87503
1	20695794	268	88192
1	20779193	269	88298
1	20862672	270	88192
1	20945960	271	88139
1	21029352	272	88086
1	21111884	273	86178
1	21195648	274	89252
1	21278806	275	87503
1	21362038	276	87662
1	21445265	277	87927
1	21528626	278	88086
1	21611869	279	87874
1	21695709	280	89199
1	21778834	281	87715
1	21862706	282	89093
1	21945518	283	86602
1	22029171	284	88722
1	22111391	285	85701
1	22195242	286	89252
1	22278323	287	87556
1	22362136	288	89040
1	22444885	289	86867
1	22528485	290	88457
1	22611705	291	87609
1	22695750	292	89623
1	22778896	293	87238
1	22862286	294	88404
1	22945857	295	88828
1	23029056	296	87556
1	23111951	297	87503
1	23195639	298	88722
1	23279135	299	88192
1	23362643	300	88457
1	23446247	301	88775
1	23529802	302	88510
1	23612797	303	87291
1	23696521	304	88722
1	23779172	305	86655
1	23862927	306	88828
1	23945979	307	87185
1	24029388	308	88404
1	24112381	309	87556
1	24196271	310	89146
1	24279443	311	87715
1	24362971	312	88404
1	24446082	313	87715
1	24529715	314	88669
1	24612555	315	86814
1	24696227	316	88775
1	24779250	317	87503
1	24862546	318	88192
1	24945416	319	86496
1	25029044	320	89040
1	25112469	321	88245
1	25195707	322	87715
1	25279395	323	89040
1	25363092	324	88722
1	25446195	325	87291
1	25529252	326	87291
1	25612994	327	89146
1	25696230	328	87980
1	25779886	329	88669
1	25862775	330	87238
1	25947059	331	89941
1	26030045	332	87238
1	26113591	333	88722
1	26197037	334	87821
1	26279866	335	87026
1	26363442	336	88775
1	26447146	337	88722
1	26530121	338	87079
1	26613161	339	87397
1	26696934	340	88987
1	26780347	341	88404
1	26863321	342	87132
1	26946667	343	87927
1	27030064	344	88298
1	27113434	345	87980
1	27197226	346	89411
1	27280394	347	87344
1	27363790	348	87874
1	27447028	349	88298
1	27530521	350	88669
1	27614345	351	88828
1	27697090	352	86708
1	27781140	353	89464
1	27863564	354	85807
1	27947049	355	88616
1	28030344	356	88086
1	28114122	357	88881
1	28197015	358	86973
1	28280604	359	88351
1	28364163	360	88616
1	28447430	361	87980
1	28530358	362	87026
1	28613690	363	88298
1	28697264	364	88669
1	28780876	365	88457
1	28864215	366	88086
1	28948224	367	89464
1	29031501	368	88086
1	29115213	369	88669
1	29198397	370	87450
1	29281817	371	88404
1	29364799	372	87397
1	29448562	373	88881
1	29531178	374	86390
1	29614875	375	88616
1	29698493	376	89040
1	29781588	377	87397
1	29864898	378	87927
1	29948241	379	88192
1	30032107	380	89199
1	30115037	381	87132
1	30198796	382	88934
1	30280997	383	85383
1	30364393	384	88245
1	30447659	385	88139
1	30530806	386	87556
1	30614513	387	88616
1	30696870	388	86072
1	30780497	389	88987
1	30863625	390	87450
1	30946874	391	87768
1	31030331	392	88245
1	31114045	393	88881
1	31197193	394	87662
1	31280523	395	88298
1	31363795	396	87768
1	31446844	397	87397
1	31530877	398	89411
1	31613948	399	87662
1	31697239	400	87874
1	31781143	401	89252
1	31863937	402	86920
1	31947556	403	88722
1	32030621	404	87450
1	32114048	405	88245
1	32197430	406	88245
1	32280591	407	87556
1	32364112	408	88722
1	32447244	409	87344
1	32530229	410	86973
1	32613467	411	87768
1	32697796	412	90471
1	32780891	413	87397
1	32864577	414	88828
1	32947332	415	86761
1	33031130	416	89040
1	33113702	417	86284
1	33197027	418	87927
1	33279989	419	87344
1	33362725	420	86655
1	33446632	421	89517
1	33529232	422	86443
1	33612639	423	87980
1	33695519	424	86920
1	33779185	425	89252
1	33862431	426	87980
1	33945768	427	88086
1	34029257	428	88192
1	34112298	429	87556
1	34195959	430	88245
1	34278278	431	86019
1	34361776	432	88404
1	34444490	433	86337
1	34528321	434	89040
1	34611229	435	87344
1	34694509	436	88033
1	34777678	437	87556
1	34860539	438	87026
1	34944215	439	88881
1	35027137	440	86814
1	35109505	441	86072
1	35193378	442	89199
1	35276707	443	88192
1	35360545	444	89093
1	35443719	445	87715
1	35527410	446	88775
1	35610637	447	88086
1	35693696	448	87238
1	35777246	449	88775
1	35859827	450	86072
1	35943206	451	88351
1	36026447	452	87768
1	36109519	453	87556
1	36193246	454	88563
1	36276327	455	87556
1	36360116	456	88934
1	36443560	457	88510
1	36527034	458	88298
1	36610913	459	89146
1	36693584	460	86602
1	36777194	461	88828
1	36860594	462	87927
1	36943304	463	86443
1	37026644	464	88086
1	37109616	465	87238
1	37193180	466	88881
1	37276267	467	87503
1	37359594	468	87927
1	37443401	469	89305
1	37526808	470	88086
1	37610341	471	88563
1	37693261	472	87079
1	37776521	473	88298
1	37860094	474	88457
1	37943649	475	88351
1	38026869	476	87927
1	38109875	477	87344
1	38193401	478	88457
1	38276046	479	86920
1	38359492	480	88351
1	38442291	481	86602
1	38525466	482	87715
1	38608797	483	87874
1	38692431	484	88669
1	38775442	485	87132
1	38859519	486	89888
1	38942644	487	87609
1	39026287	488	88563
1	39109569	489	87715
1	39193229	490	88934
1	39277278	491	89517
1	39360099	492	87185
1	39443740	493	88616
1	39526696	494	87026
1	39610187	495	88351
1	39693121	496	87026
1	39776564	497	88722
1	39860135	498	88351
1	39943447	499	88033
1	40026859	500	88563
1	40110418	501	88510
1	40193979	502	88245
1	40277091	503	87715
1	40360487	504	88192
1	40443667	505	87556
1	40526850	506	87609
1	40610307	507	88351
1	40693589	508	87980
1	40777326	509	88828
1	40860674	510	87927
1	40943466	511	86920
1	41026930	512	88775
1	41110612	513	88669
1	41193752	514	87344
1	41277115	515	88139
1	41360651	516	88987
1	41443949	517	87768
1	41526737	518	86549
1	41610476	519	88881
1	41693589	520	87768
1	41776707	521	87397
1	41859728	522	87503
1	41943209	523	88245
1	42026445	524	87874
1	42109251	525	86708
1	42192998	526	89358
1	42276248	527	87662
1	42359562	528	88033
1	42442423	529	86814
1	42525638	530	87715
1	42608874	531	87980
1	42691513	532	86390
1	42775057	533	88616
1	42858699	534	88828
1	42942188	535	88086
1	43025541	536	88404
1	43109466	537	88934
1	43191487	538	85065
1	43275172	539	88987
1	43358376	540	87874
1	43442192	541	89252
1	43525285	542	87503
1	43608658	543	88245
1	43691825	544	87821
1	43775388	545	88192
1	43858035	546	86602
1	43942015	547	89411
1	44025492	548	88351
1	44108457	549	86973
1	44191948	550	88669
1	44274862	551	86708
1	44358223	552	88192
1	44441400	553	87662
1	44525016	554	88828
1	44607654	555	86072
1	44691768	556	89729
1	44774120	557	85648
1	44856950	558	87291
1	44940869	559	89252
1	45023677	560	86973
1	45107013	561	88245
1	45189818	562	86655
1	45273284	563	88033
1	45356400	564	88033
1	45440160	565	88616
1	45523724	566	88510
1	45607118	567	88033
1	45690464	568	88033
1	45773777	569	88139
1	45857461	570	88987
1	45940693	571	87556
1	46023229	572	86602
1	46106946	573	89040
1	46189665	574	86178
1	46273288	575	88828
1	46356567	576	87927
1	46440071	577	88457
1	46523570	578	88616
1	46606860	579	87662
1	46689794	580	87344
1	46773227	581	88404
1	46856525	582	87980
1	46939940	583	88192
1	47023499	584	88775
1	47107034	585	88404
1	47190270	586	87503
1	47273329	587	87503
1	47356135	588	86920
1	47439652	589	88563
1	47522621	590	87026
1	47605586	591	87132
1	47688922	592	88351
1	47771859	593	86920
1	47854427	594	86602
1	47938339	595	89411
1	48021116	596	86708
1	48104628	597	88404
1	48187544	598	87132
1	48270509	599	87238
1	48353479	600	87238
1	48436829	601	87927
1	48520080	602	87980
1	48603702	603	88881
1	48686905	604	87715
1	48770289	605	87768
1	48853476	606	88033
1	48936725	607	87821
1	49020092	608	88139
1	49103441	609	88192
1	49186842	610	88139
1	49269974	611	87768
1	49353147	612	87503
1	49436511	613	88298
1	49519275	614	86761
1	49602825	615	88510
1	49686239	616	88298
1	49769689	617	87927
1	49852840	618	88086
1	49936281	619	88245
1	50019468	620	87556
1	50102460	621	87344
1	50185686	622	87927
1	50269317	623	88563
1	50351899	624	86337
1	50435187	625	88086
1	50518816	626	88669
1	50601972	627	87503
1	50685335	628	88404
1	50769068	629	88881
1	50851844	630	86708
1	50935487	631	88404
1	51018871	632	88669
1	51102448	633	88457
1	51185921	634	88298
1	51269287	635	87980
1	51352222	636	86920
1	51435743	637	88775
1	51519107	638	87927
1	51601963	639	87026
1	51685718	640	88881
1	51768509	641	86867
1	51851985	642	88086
1	51935617	643	88775
1	52018950	644	88086
1	52102586	645	88669
1	52186165	646	88616
1	52269347	647	87821
1	52353130	648	88934
1	52436187	649	87238
1	52519591	650	88404
1	52602752	651	87768
1	52686004	652	87821
1	52769467	653	88563
1	52853154	654	88669
1	52936694	655	88192
1	53020063	656	88510
1	53103442	657	88616
1	53187033	658	88298
1	53269539	659	86337
1	53353410	660	89146
1	53436080	661	86072
1	53519699	662	89252
1	53603450	663	88934
1	53686499	664	87291
1	53770023	665	88457
1	53853773	666	88828
1	53937417	667	88616
1	54020034	668	86549
1	54103967	669	89093
1	54186662	670	86655
1	54270372	671	88881
1	54353036	672	86867
1	54436381	673	87874
1	54519742	674	88457
1	54603177	675	88192
1	54686508	676	87821
1	54769821	677	88192
1	54853596	678	88934
1	54936052	679	86072
1	55019539	680	88510
1	55102703	681	87662
1	55186066	682	88192
1	55268952	683	86814
1	55352147	684	87927
1	55435865	685	88934
1	55519075	686	87821
1	55602165	687	87609
1	55685584	688	87715
1	55768998	689	88616
1	55852723	690	88510
1	55935410	691	86602
1	56018606	692	87715
1	56101496	693	87344
1	56184703	694	87768
1	56267978	695	87927
1	56351481	696	88669
1	56435306	697	89146
1	56518623	698	87397
1	56601396	699	86920
1	56684625	700	87662
1	56768322	701	89093
1	56851461	702	87874
1	56934871	703	88351
1	57018133	704	87662
1	57101742	705	88245
1	57184570	706	86867
1	57268173	707	88722
1	57350400	708	85542
1	57434184	709	89305
1	57517404	710	87715
1	57600756	711	87927
1	57684578	712	89093
1	57768000	713	88404
1	57851080	714	87503
1	57934188	715	87609
1	58017250	716	87556
1	58100426	717	87503
1	58183355	718	87609
1	58267283	719	88722
1	58350185	720	87344
1	58433870	721	88510
1	58516999	722	87768
1	58600142	723	87609
1	58683418	724	87927
1	58766726	725	88033
1	58849895	726	87556
1	58933476	727	88669
1	59016420	728	87715
1	59099324	729	86496
1	59182930	730	88881
1	59266765	731	89199
1	59350456	732	88457
1	59433888	733	88245
1	59517245	734	88192
1	59600365	735	87397
1	59683959	736	88563
1	59767099	737	87450
1	59850641	738	88669
1	59934041	739	87927
1	60017675	740	89093
1	60101328	741	88457
1	60184337	742	87397
1	60267592	743	88086
1	60350745	744	87556
1	60434302	745	88510
1	60517854	746	88510
1	60600941	747	87291
1	60684301	748	88404
1	60768030	749	88775
1	60851188	750	87344
1	60934611	751	88510
1	61018002	752	88245
1	61100869	753	86973
1	61184421	754	88881
1	61268066	755	88510
1	61350405	756	86072
1	61434118	757	88722
1	61516308	758	85383
1	61599739	759	88192
1	61682602	760	86973
1	61766001	761	88510
1	61849431	762	88245
1	61932480	763	87132
1	62015555	764	87927
1	62099402	765	89146
1	62182333	766	86920
1	62266398	767	89888
1	62349497	768	87503
1	62432612	769	87344
1	62516386	770	89199
1	62599672	771	87874
1	62683114	772	88351
1	62766726	773	88881
1	62849654	774	86761
1	62932628	775	87556
1	63016428	776	88934
1	63099376	777	87132
1	63182973	778	88563
1	63265981	779	87344
1	63349622	780	88987
1	63432936	781	88086
1	63516270	782	87715
1	63599480	783	87715
1	63683088	784	88669
1	63766445	785	88192
1	63849657	786	87768
1	63933658	787	89199
1	64017177	788	88722
1	64100895	789	88987
1	64184048	790	87874
1	64267776	791	88934
1	64350453	792	86549
1	64434109	793	88828
1	64517301	794	87291
1	64600929	795	88881
1	64683965	796	86761
1	64768023	797	89835
1	64851361	798	87874
1	64935186	799	89199
1	65018498	800	88086
1	65102255	801	88616
1	65185971	802	88881
1	65269476	803	88616
1	65352899	804	88351
1	65436398	805	88245
1	65519185	806	86867
1	65602718	807	88404
1	65685695	808	87450
1	65768897	809	87821
1	65852152	810	87821
1	65935611	811	88192
1	66018819	812	87874
1	66102089	813	87821
1	66185754	814	88828
1	66268900	815	87715
1	66352422	816	88351
1	66435887	817	88563
1	66518974	818	87344
1	66602611	819	89146
1	66685685	820	86920
1	66769246	821	88616
1	66852814	822	88563
1	66936096	823	87768
1	67019452	824	88192
1	67102873	825	88245
1	67186110	826	87662
1	67269322	827	88086
1	67352835	828	88245
1	67435847	829	87291
1	67519763	830	89252
1	67602784	831	87238
1	67686138	832	88033
1	67768978	833	87079
1	67852466	834	88616
1	67935705	835	87662
1	68019322	836	88563
1	68102630	837	88086
1	68186198	838	88510
1	68269431	839	87874
1	68353005	840	88828
1	68435996	841	87344
1	68519749	842	88828
1	68602876	843	87662
1	68686469	844	88351
1	68769530	845	87291
1	68852865	846	88245
1	68936446	847	88722
1	69019281	848	86549
1	69102652	849	88404
1	69185448	850	86655
1	69269050	851	88775
1	69352036	852	87397
1	69435235	853	87768
1	69518526	854	87768
1	69601257	855	86443
1	69684196	856	87450
1	69767719	857	88616
1	69850313	858	86284
1	69933467	859	87662
1	70017062	860	88722
1	70099662	861	86019
1	70183337	862	89252
1	70266266	863	87026
1	70350143	864	89040
1	70433002	865	86814
1	70517027	866	89729
1	70600430	867	87927
1	70683874	868	88298
1	70767568	869	88775
1	70851010	870	88298
1	70934420	871	88245
1	71017692	872	88086
1	71101319	873	88457
1	71184669	874	88033
1	71267457	875	87026
1	71351181	876	88722
1	71433809	877	86867
1	71517588	878	89093
1	71600556	879	87185
1	71684331	880	88775
1	71767898	881	88775
1	71851156	882	87556
1	71934504	883	88139
1	72017860	884	88192
1	72101060	885	87821
1	72184430	886	87980
1	72267852	887	88245
1	72351073	888	87980
1	72435105	889	89146
1	72517721	890	86549
1	72601292	891	88828
1	72684388	892	87238
1	72767857	893	88298
1	72851341	894	88563
1	72934855	895	88245
1	73018536	896	88775
1	73101367	897	87185
1	73184584	898	87556
1	73268238	899	88722
1	73351091	900	86920
1	73434918	901	89411
1	73518228	902	87927
1	73600950	903	86761
1	73684285	904	88139
1	73767539	905	87662
1	73850675	906	87715
1	73934415	907	88987
1	74017480	908	87503
1	74100806	909	87768
1	74184079	910	88298
1	74267714	911	88404
1	74350924	912	87662
1	74434116	913	87715
1	74517472	914	88351
1	74601424	915	89199
1	74684701	916	87768
1	74767851	917	87874
1	74851300	918	88351
1	74934554	919	87821
1	75017781	920	87768
1	75101289	921	88457
1	75184448	922	87238
1	75267793	923	88351
1	75351037	924	87768
1	75434309	925	88139
1	75518186	926	89146
1	75600729	927	86443
1	75684664	928	89411
1	75767294	929	86178
1	75851050	930	88987
1	75933631	931	86284
1	76017303	932	88669
1	76100394	933	87768
1	76183956	934	88298
1	76266546	935	86655
1	76350355	936	88987
1	76432733	937	86125
1	76516564	938	89093
1	76599536	939	87185
1	76683210	940	88934
1	76767082	941	89040
1	76849871	942	87026
1	76933354	943	88404
1	77016730	944	87980
1	77099994	945	87980
1	77183186	946	87662
1	77267083	947	89093
1	77349522	948	86019
1	77433498	949	89517
1	77516691	950	87662
1	77600125	951	88404
1	77683898	952	88987
1	77766871	953	87185
1	77850122	954	87768
1	77933740	955	89093
1	78017340	956	88245
1	78100020	957	86761
1	78183316	958	88192
1	78266627	959	87821
1	78350140	960	88616
1	78433533	961	88139
1	78516690	962	88033
1	78600426	963	88881
1	78683226	964	86602
1	78767084	965	89040
1	78849847	966	86867
1	78933521	967	88881
1	79017029	968	88457
1	79100041	969	87238
1	79183268	970	87980
1	79266755	971	88351
1	79349728	972	87291
1	79432923	973	87662
1	79516724	974	89411
1	79598887	975	84959
1	79682508	976	88669
1	79764912	977	85913
1	79848237	978	87874
1	79931480	979	88033
1	80015287	980	89040
1	80098069	981	86708
1	80181855	982	89199
1	80265063	983	87874
1	80348770	984	88828
1	80431737	985	86973
1	80515679	986	89040
1	80597311	987	84641
1	80681245	988	89146
1	80763588	989	85754
1	80847318	990	89040
1	80930174	991	87185
1	81013482	992	87556
1	81096860	993	88192
1	81179811	994	87291
1	81263445	995	88828
1	81346876	996	88351
1	81430285	997	88351
1	81514023	998	88987
1	81596390	999	86231
2	12529441	170	25
2	12612661	171	24
2	12696094	172	53
2	12778786	173	11
2	12862756	174	34
2	12945704	175	15
2	13029622	176	57
2	13112020	177	14
2	13195786	178	39
2	13278444	179	11
2	13362035	180	29
2	13445035	181	15
2	13528701	182	17
2	13612132	183	27
2	13695431	184	24
2	13779068	185	34
2	13862278	186	15
2	13945994	187	39
2	14028854	188	21
2	14112238	189	21
2	14195572	190	19
2	14278694	191	26
2	14361954	192	11
2	14445700	193	23
2	14529258	194	24
2	14613010	195	21
2	14696542	196	57
2	14779340	197	5
2	14863392	198	23
2	14946612	199	20
2	15030249	200	26
2	15113637	201	32
2	15196510	202	19
2	15280083	203	18
2	15363403	204	24
2	15446960	205	38
2	15530119	206	15
2	15613745	207	68
2	15696046	208	9
2	15779902	209	67
2	15862000	210	16
2	15946095	211	23
2	16029723	212	32
2	16112860	213	16
2	16196249	214	18
2	16279820	215	23
2	16362743	216	21
2	16446149	217	8
2	16529844	218	32
2	16613111	219	27
2	16696721	220	36
2	16779569	221	14
2	16863239	222	25
2	16946413	223	23
2	17030092	224	37
2	17113231	225	15
2	17196921	226	35
2	17279815	227	10
2	17363944	228	57
2	17446553	229	15
2	17530004	230	23
2	17613272	231	28
2	17696424	232	40
2	17779603	233	30
2	17862607	234	21
2	17946124	235	27
2	18029513	236	19
2	18113022	237	49
2	18195931	238	34
2	18278954	239	40
2	18361859	240	26
2	18445246	241	17
2	18528708	242	18
2	18612158	243	21
2	18695395	244	21
2	18778830	245	50
2	18861584	246	28
2	18945268	247	41
2	19028218	248	13
2	19111837	249	22
2	19195431	250	20
2	19278651	251	13
2	19362127	252	25
2	19445322	253	13
2	19529136	254	20
2	19612806	255	14
2	19696613	256	51
2	19779118	257	5
2	19862889	258	38
2	19945831	259	16
2	20029412	260	13
2	20113067	261	60
2	20195831	262	7
2	20279877	263	18
2	20363214	264	25
2	20446519	265	41
2	20529356	266	14
2	20612398	267	30
2	20695794	268	13
2	20779193	269	31
2	20862672	270	21
2	20945960	271	31
2	21029352	272	45
2	21111884	273	21
2	21195648	274	26
2	21278806	275	34
2	21362038	276	24
2	21445265	277	29
2	21528626	278	26
2	21611869	279	9
2	21695709	280	25
2	21778834	281	14
2	21862706	282	53
2	21945518	283	10
2	22029171	284	55
2	22111391	285	14
2	22195242	286	31
2	22278323	287	13
2	22362136	288	46
2	22444885	289	25
2	22528485	290	30
2	22611705	291	13
2	22695750	292	34
2	22778896	293	12
2	22862286	294	7
2	22945857	295	33
2	23029056	296	43
2	23111951	297	5
2	23195639	298	20
2	23279135	299	29
2	23362643	300	16
2	23446247	301	23
2	23529802	302	38
2	23612797	303	8
2	23696521	304	49
2	23779172	305	16
2	23862927	306	36
2	23945979	307	14
2	24029388	308	44
2	24112381	309	5
2	24196271	310	33
2	24279443	311	16
2	24362971	312	35
2	24446082	313	12
2	24529715	314	48
2	24612555	315	7
2	24696227	316	28
2	24779250	317	8
2	24862546	318	56
2	24945416	319	18
2	25029044	320	21
2	25112469	321	25
2	25195707	322	28
2	25279395	323	17
2	25363092	324	34
2	25446195	325	51
2	25529252	326	4
2	25612994	327	31
2	25696230	328	10
2	25779886	329	34
2	25862775	330	14
2	25947059	331	44
2	26030045	332	18
2	26113591	333	15
2	26197037	334	48
2	26279866	335	14
2	26363442	336	17
2	26447146	337	39
2	26530121	338	38
2	26613161	339	13
2	26696934	340	16
2	26780347	341	46
2	26863321	342	29
2	26946667	343	21
2	27030064	344	18
2	27113434	345	17
2	27197226	346	36
2	27280394	347	32
2	27363790	348	30
2	27447028	349	16
2	27530521	350	5
2	27614345	351	52
2	27697090	352	9
2	27781140	353	66
2	27863564	354	7
2	27947049	355	13
2	28030344	356	16
2	28114122	357	54
2	28197015	358	28
2	28280604	359	22
2	28364163	360	25
2	28447430	361	32
2	28530358	362	14
2	28613690	363	13
2	28697264	364	26
2	28780876	365	27
2	28864215	366	18
2	28948224	367	29
2	29031501	368	21
2	29115213	369	30
2	29198397	370	20
2	29281817	371	30
2	29364799	372	17
2	29448562	373	61
2	29531178	374	19
2	29614875	375	6
2	29698493	376	32
2	29781588	377	19
2	29864898	378	30
2	29948241	379	13
2	30032107	380	30
2	30115037	381	9
2	30198796	382	61
2	30280997	383	33
2	30364393	384	18
2	30447659	385	32
2	30530806	386	8
2	30614513	387	52
2	30696870	388	9
2	30780497	389	26
2	30863625	390	31
2	30946874	391	38
2	31030331	392	13
2	31114045	393	27
2	31197193	394	14
2	31280523	395	28
2	31363795	396	38
2	31446844	397	16
2	31530877	398	25
2	31613948	399	33
2	31697239	400	9
2	31781143	401	26
2	31863937	402	19
2	31947556	403	35
2	32030621	404	25
2	32114048	405	26
2	32197430	406	24
2	32280591	407	21
2	32364112	408	40
2	32447244	409	49
2	32530229	410	21
2	32613467	411	4
2	32697796	412	28
2	32780891	413	16
2	32864577	414	44
2	32947332	415	9
2	33031130	416	50
2	33113702	417	24
2	33197027	418	37
2	33279989	419	40
2	33362725	420	4
2	33446632	421	42
2	33529232	422	24
2	33612639	423	39
2	33695519	424	13
2	33779185	425	16
2	33862431	426	21
2	33945768	427	28
2	34029257	428	32
2	34112298	429	27
2	34195959	430	46
2	34278278	431	21
2	34361776	432	58
2	34444490	433	17
2	34528321	434	35
2	34611229	435	16
2	34694509	436	31
2	34777678	437	41
2	34860539	438	15
2	34944215	439	40
2	35027137	440	53
2	35109505	441	5
2	35193378	442	32
2	35276707	443	9
2	35360545	444	33
2	35443719	445	7
2	35527410	446	14
2	35610637	447	39
2	35693696	448	26
2	35777246	449	41
2	35859827	450	21
2	35943206	451	25
2	36026447	452	30
2	36109519	453	27
2	36193246	454	37
2	36276327	455	14
2	36360116	456	28
2	36443560	457	14
2	36527034	458	10
2	36610913	459	42
2	36693584	460	19
2	36777194	461	24
2	36860594	462	61
2	36943304	463	26
2	37026644	464	28
2	37109616	465	16
2	37193180	466	30
2	37276267	467	14
2	37359594	468	17
2	37443401	469	17
2	37526808	470	16
2	37610341	471	39
2	37693261	472	17
2	37776521	473	10
2	37860094	474	24
2	37943649	475	26
2	38026869	476	31
2	38109875	477	11
2	38193401	478	34
2	38276046	479	7
2	38359492	480	42
2	38442291	481	35
2	38525466	482	30
2	38608797	483	22
2	38692431	484	51
2	38775442	485	11
2	38859519	486	20
2	38942644	487	21
2	39026287	488	36
2	39109569	489	13
2	39193229	490	6
2	39277278	491	50
2	39360099	492	12
2	39443740	493	49
2	39526696	494	12
2	39610187	495	48
2	39693121	496	21
2	39776564	497	4
2	39860135	498	18
2	39943447	499	15
2	40026859	500	15
2	40110418	501	27
2	40193979	502	43
2	40277091	503	14
2	40360487	504	36
2	40443667	505	30
2	40526850	506	23
2	40610307	507	24
2	40693589	508	18
2	40777326	509	26
2	40860674	510	46
2	40943466	511	20
2	41026930	512	11
2	41110612	513	38
2	41193752	514	25
2	41277115	515	11
2	41360651	516	18
2	41443949	517	60
2	41526737	518	8
2	41610476	519	28
2	41693589	520	29
2	41776707	521	37
2	41859728	522	22
2	41943209	523	28
2	42026445	524	30
2	42109251	525	12
2	42192998	526	23
2	42276248	527	32
2	42359562	528	47
2	42442423	529	24
2	42525638	530	24
2	42608874	531	40
2	42691513	532	13
2	42775057	533	15
2	42858699	534	35
2	42942188	535	30
2	43025541	536	7
2	43109466	537	71
2	43191487	538	13
2	43275172	539	16
2	43358376	540	15
2	43442192	541	30
2	43525285	542	22
2	43608658	543	18
2	43691825	544	21
2	43775388	545	60
2	43858035	546	10
2	43942015	547	28
2	44025492	548	44
2	44108457	549	22
2	44191948	550	37
2	44274862	551	37
2	44358223	552	26
2	44441400	553	16
2	44525016	554	62
2	44607654	555	13
2	44691768	556	71
2	44774120	557	30
2	44856950	558	0
2	44940869	559	42
2	45023677	560	15
2	45107013	561	57
2	45189818	562	24
2	45273284	563	24
2	45356400	564	25
2	45440160	565	23
2	45523724	566	30
2	45607118	567	15
2	45690464	568	33
2	45773777	569	6
2	45857461	570	17
2	45940693	571	56
2	46023229	572	1
2	46106946	573	58
2	46189665	574	11
2	46273288	575	19
2	46356567	576	25
2	46440071	577	17
2	46523570	578	30
2	46606860	579	23
2	46689794	580	13
2	46773227	581	32
2	46856525	582	24
2	46939940	583	15
2	47023499	584	18
2	47107034	585	33
2	47190270	586	43
2	47273329	587	39
2	47356135	588	7
2	47439652	589	46
2	47522621	590	42
2	47605586	591	13
2	47688922	592	30
2	47771859	593	57
2	47854427	594	1
2	47938339	595	40
2	48021116	596	14
2	48104628	597	50
2	48187544	598	29
2	48270509	599	16
2	48353479	600	27
2	48436829	601	29
2	48520080	602	3
2	48603702	603	31
2	48686905	604	31
2	48770289	605	28
2	48853476	606	22
2	48936725	607	35
2	49020092	608	13
2	49103441	609	17
2	49186842	610	23
2	49269974	611	16
2	49353147	612	18
2	49436511	613	45
2	49519275	614	11
2	49602825	615	18
2	49686239	616	30
2	49769689	617	26
2	49852840	618	20
2	49936281	619	32
2	50019468	620	27
2	50102460	621	22
2	50185686	622	8
2	50269317	623	59
2	50351899	624	26
2	50435187	625	11
2	50518816	626	41
2	50601972	627	23
2	50685335	628	18
2	50769068	629	45
2	50851844	630	17
2	50935487	631	24
2	51018871	632	6
2	51102448	633	18
2	51185921	634	35
2	51269287	635	45
2	51352222	636	19
2	51435743	637	19
2	51519107	638	45
2	51601963	639	14
2	51685718	640	58
2	51768509	641	27
2	51851985	642	19
2	51935617	643	23
2	52018950	644	18
2	52102586	645	22
2	52186165	646	20
2	52269347	647	15
2	52353130	648	40
2	52436187	649	15
2	52519591	650	18
2	52602752	651	20
2	52686004	652	22
2	52769467	653	17
2	52853154	654	24
2	52936694	655	25
2	53020063	656	18
2	53103442	657	16
2	53187033	658	56
2	53269539	659	8
2	53353410	660	51
2	53436080	661	7
2	53519699	662	10
2	53603450	663	28
2	53686499	664	17
2	53770023	665	25
2	53853773	666	7
2	53937417	667	50
2	54020034	668	15
2	54103967	669	50
2	54186662	670	16
2	54270372	671	33
2	54353036	672	27
2	54436381	673	25
2	54519742	674	17
2	54603177	675	17
2	54686508	676	32
2	54769821	677	15
2	54853596	678	55
2	54936052	679	19
2	55019539	680	32
2	55102703	681	21
2	55186066	682	31
2	55268952	683	27
2	55352147	684	7
2	55435865	685	33
2	55519075	686	28
2	55602165	687	31
2	55685584	688	20
2	55768998	689	16
2	55852723	690	40
2	55935410	691	30
2	56018606	692	38
2	56101496	693	20
2	56184703	694	27
2	56267978	695	17
2	56351481	696	18
2	56435306	697	32
2	56518623	698	54
2	56601396	699	34
2	56684625	700	1
2	56768322	701	19
2	56851461	702	26
2	56934871	703	38
2	57018133	704	28
2	57101742	705	43
2	57184570	706	8
2	57268173	707	59
2	57350400	708	8
2	57434184	709	34
2	57517404	710	21
2	57600756	711	15
2	57684578	712	12
2	57768000	713	24
2	57851080	714	33
2	57934188	715	31
2	58017250	716	17
2	58100426	717	34
2	58183355	718	16
2	58267283	719	36
2	58350185	720	25
2	58433870	721	21
2	58516999	722	29
2	58600142	723	24
2	58683418	724	23
2	58766726	725	38
2	58849895	726	16
2	58933476	727	40
2	59016420	728	52