version 2
run PerfectCC-3-20100906-00:52:15-1188
attr configname PerfectCC
attr datetime 20100906-00:52:15
attr experiment PerfectCC
attr inifile D:/Developement/Oversim2/multic/simulations/omnetpp.ini
attr iterationvars $mpeers=99
attr iterationvars2 "$mpeers=99, $repetition=0"
attr measurement $mpeers=99
attr mpeers 99
attr network oversim.underlay.simpleunderlay.SimpleUnderlayNetwork
attr processid 1188
attr repetition 0
attr replication #0
attr resultdir results
attr runnumber 3
attr seedset 3

vector 1  SimpleUnderlayNetwork.globalObserver.globalStatistics  incoming_bytes  ETV
vector 2  SimpleUnderlayNetwork.globalObserver.globalStatistics  drops  ETV
vector 3  SimpleUnderlayNetwork.globalObserver.globalStatistics  delayed_acks  ETV
vector 4  SimpleUnderlayNetwork.globalObserver.globalStatistics  timetotimeouts  ETV
vector 5  SimpleUnderlayNetwork.globalObserver.globalStatistics  rate  ETV
vector 6  SimpleUnderlayNetwork.globalObserver.globalStatistics  "GlobalNodeList: Number of nodes"  ETV
vector 7  SimpleUnderlayNetwork.globalObserver.globalStatistics  "GlobalNodeList: Number of bootstrapped malicious nodes"  ETV
1	64015569	248	455747
1	64441528	249	459669
1	64867394	250	458291
1	65292680	251	458291
1	65719167	252	460252
1	66144735	253	457125
1	66569766	254	457178
1	66995079	255	457920
1	67421083	256	459828
1	67846791	257	456701
1	68272740	258	459722
1	68698830	259	459457
1	69125063	260	459669
1	69550234	261	456807
1	69976360	262	459934
1	70402454	263	458662
1	70828710	264	459881
1	71253678	265	456542
1	71680457	266	460782
1	72106489	267	458556
1	72532116	268	458397
1	72957003	269	455853
1	73382462	270	458238
1	73808090	271	458980
1	74233494	272	456754
1	74660411	273	461418
1	75086548	274	459457
1	75512356	275	457072
1	75938031	276	458026
1	76362609	277	455853
1	76789138	278	460411
1	77215076	279	458874
1	77640788	280	458927
1	78064329	281	452938
1	78489514	282	457549
1	78915203	283	458980
1	79340232	284	455588
1	79764323	285	456330
1	80191146	286	460199
1	80615833	287	455376
1	81040477	288	456436
1	81465932	289	457973
1	81892600	290	460040
1	82317385	291	457284
1	82743085	292	457814
1	83167863	293	455906
1	83593702	294	457761
1	84019140	295	457708
1	84444920	296	457973
1	84870948	297	457284
1	85295583	298	456012
1	85722234	299	460835
1	86147880	300	459086
1	86573478	301	458079
1	86999909	302	460835
1	87424954	303	456542
1	87850812	304	459351
1	88277141	305	459139
1	88702599	306	458503
1	89126380	307	453309
1	89550503	308	454846
1	89975500	309	456754
1	90401062	310	458397
1	90826458	311	458132
1	91252542	312	457761
1	91677235	313	455376
1	92103267	314	460040
1	92528531	315	458079
1	92954044	316	456277
1	93378294	317	455164
1	93803963	318	458768
1	94229824	319	458821
1	94656028	320	460252
1	95081606	321	456595
1	95507896	322	460040
1	95933115	323	456913
1	96358955	324	458397
1	96784813	325	459245
1	97211054	326	459033
1	97636755	327	458503
1	98061706	328	456224
1	98486339	329	456754
1	98912667	330	459351
1	99337160	331	454846
1	99763344	332	458980
1	100189253	333	460888
1	100616082	334	460517
1	101041303	335	457602
1	101467991	336	459669
1	101893118	337	457443
1	102319467	338	459616
1	102743972	339	455694
1	103169387	340	457231
1	103595685	341	460676
1	104020429	342	455747
1	104445050	343	456330
1	104870230	344	456701
1	105295816	345	459245
1	105721156	346	457072
1	106146574	347	457125
1	106571274	348	457920
1	106998308	349	460464
1	107422777	350	455058
1	107847814	351	458662
1	108274095	352	458768
1	108699503	353	458238
1	109124126	354	455853
1	109549522	355	457284
1	109974697	356	457708
1	110399573	357	456860
1	110825577	358	459351
1	111251171	359	457867
1	111677136	360	459722
1	112102525	361	457602
1	112528419	362	458662
1	112955200	363	460146
1	113379722	364	456383
1	113805975	365	458980
1	114231029	366	456118
1	114656845	367	458556
1	115081878	368	456860
1	115508294	369	459934
1	115932732	370	455111
1	116357105	371	456383
1	116783227	372	459351
1	117209286	373	460464
1	117634358	374	455906
1	118059822	375	458132
1	118485788	376	459510
1	118911614	377	458874
1	119336813	378	456860
1	119763057	379	461206
1	120189305	380	458556
1	120615103	381	459722
1	121039317	382	454051
1	121464106	383	456489
1	121888268	384	455164
1	122313204	385	456277
1	122738084	386	455906
1	123161816	387	454899
1	123588751	388	461365
1	124013071	389	454846
1	124439494	390	459616
1	124865893	391	461630
1	125290697	392	455429
1	125714335	393	453309
1	126140036	394	458397
1	126563620	395	453680
1	126988716	396	457655
1	127413020	397	454952
1	127836862	398	454210
1	128261805	399	456277
1	128687458	400	459616
1	129111929	401	455217
1	129538059	402	459616
1	129962346	403	455535
1	130388215	404	458821
1	130814567	405	459457
1	131240143	406	458927
1	131666553	407	459881
1	132091816	408	456807
1	132518097	409	459669
1	132942738	410	455270
1	133367874	411	455588
1	133792969	412	457390
1	134218901	413	459139
1	134644956	414	458927
1	135071677	415	459457
1	135497451	416	459351
1	135923294	417	458609
1	136349023	418	458768
1	136775427	419	459086
1	137201492	420	459934
1	137626808	421	457973
1	138053066	422	459616
1	138478754	423	458609
1	138905628	424	459987
1	139331822	425	460252
1	139757681	426	457655
1	140184154	427	459934
1	140609781	428	458079
1	141035643	429	458503
1	141460621	430	456012
1	141887086	431	461206
1	142312618	432	457019
1	142739594	433	462266
1	143164660	434	456383
1	143591481	435	460782
1	144017054	436	457708
1	144442372	437	455959
1	144867624	438	459086
1	145293548	439	458715
1	145719937	440	459616
1	146144205	441	455376
1	146569884	442	460517
1	146994625	443	455482
1	147418890	444	454634
1	147845280	445	461312
1	148271745	446	458556
1	148695812	447	455800
1	149122989	448	462319
1	149548656	449	458503
1	149975168	450	459457
1	150400694	451	458079
1	150826746	452	459563
1	151251657	453	455376
1	151675902	454	455058
1	152101060	455	456966
1	152526770	456	459033
1	152951193	457	456648
1	153376969	458	457973
1	153801812	459	456171
1	154227407	460	458609
1	154652102	461	456860
1	155076070	462	453256
1	155501297	463	458397
1	155924781	464	452779
1	156350493	465	458715
1	156775739	466	456807
1	157200853	467	458185
1	157626557	468	457284
1	158051582	469	458185
1	158477064	470	457814
1	158903882	471	461842
1	159329038	472	456595
1	159755137	473	458768
1	160180423	474	457602
1	160606650	475	459563
1	161032780	476	459404
1	161458692	477	458503
1	161885280	478	461047
1	162311038	479	457655
1	162737391	480	459669
1	163161068	481	453945
1	163587201	482	459669
1	164013248	483	459245
1	164439202	484	459881
1	164865985	485	459139
1	165291322	486	457708
1	165716324	487	457072
1	166143193	488	461312
1	166568030	489	456436
1	166993471	490	457761
1	167418547	491	456277
1	167843642	492	456595
1	168269010	493	458185
1	168694954	494	458927
1	169121311	495	461630
1	169546476	496	457443
1	169973040	497	459828
1	170397417	498	454793
1	170823626	499	460252
1	171247396	500	453415
1	171672884	501	457602
1	172098900	502	458344
1	172524546	503	457231
1	172949033	504	457496
1	173373675	505	454581
1	173799154	506	459245
1	174224923	507	458291
1	174649377	508	454846
1	175075186	509	458609
1	175501018	510	459245
1	175925798	511	456436
1	176351380	512	457814
1	176777548	513	459828
1	177202152	514	456383
1	177629222	515	460570
1	178054565	516	457231
1	178480072	517	458132
1	178904938	518	456860
1	179331801	519	460729
1	179755855	520	453945
1	180182325	521	460994
1	180607860	522	457655
1	181033511	523	457814
1	181460247	524	459987
1	181884782	525	455853
1	182309460	526	455058
1	182734895	527	458238
1	183160115	528	457973
1	183586470	529	459404
1	184011871	530	458450
1	184437182	531	457602
1	184863225	532	459139
1	185288076	533	455111
1	185712579	534	455164
1	186138477	535	459086
1	186563893	536	457496
1	186988733	537	455588
1	187413995	538	456595
1	187838174	539	454899
1	188264017	540	458768
1	188689753	541	458874
1	189115127	542	457231
1	189541682	543	460464
1	189967341	544	458344
1	190393110	545	458291
1	190819218	546	459669
1	191245942	547	459881
1	191671951	548	459033
1	192098455	549	460040
1	192524574	550	459139
1	192950544	551	459192
1	193376655	552	458821
1	193801137	553	456012
1	194227269	554	458874
1	194651159	555	454369
1	195076500	556	456489
1	195502668	557	459192
1	195927755	558	457708
1	196353682	559	457443
1	196779525	560	458874
1	197206004	561	461047
1	197632499	562	460570
1	198059279	563	460358
1	198485067	564	458609
1	198910480	565	456648
1	199336438	566	459351
1	199763148	567	461312
1	200188788	568	458185
1	200615313	569	459351
1	201041485	570	459139
1	201466549	571	456754
1	201893736	572	460994
1	202319248	573	458238
1	202745166	574	458821
1	203171159	575	458026
1	203596963	576	459457
1	204022559	577	457496
1	204447301	578	455694
1	204872722	579	458609
1	205298306	580	458238
1	205724413	581	458079
1	206148520	582	454581
1	206573922	583	457178
1	206998362	584	455906
1	207423396	585	455800
1	207847837	586	455270
1	208273232	587	458238
1	208696859	588	453468
1	209122457	589	458291
1	209547268	590	456065
1	209972837	591	457973
1	210397854	592	455641
1	210822111	593	456277
1	211248084	594	458821
1	211672384	595	455641
1	212098128	596	458344
1	212523413	597	458079
1	212949429	598	458503
1	213374562	599	456012
1	213800653	600	459245
1	214226316	601	457496
1	214652556	602	459616
1	215078840	603	460994
1	215504609	604	459298
1	215930146	605	457602
1	216355121	606	457549
1	216782164	607	461259
1	217208234	608	458662
1	217632453	609	453680
1	218057910	610	457920
1	218482311	611	454528
1	218907560	612	458662
1	219334604	613	460411
1	219759980	614	456542
1	220186611	615	462584
1	220611466	616	455376
1	221037236	617	458927
1	221463438	618	459934
1	221888056	619	456224
1	222315111	620	462160
1	222740918	621	459351
1	223167582	622	460146
1	223593093	623	458079
1	224019570	624	459616
1	224445013	625	457761
1	224871726	626	461153
1	225296762	627	456754
1	225722233	628	457655
1	226147924	629	458662
1	226574394	630	460623
1	226999818	631	456807
1	227426222	632	460570
1	227851756	633	458503
1	228278941	634	461312
1	228705621	635	460093
1	229129710	636	454157
1	229554820	637	456595
1	229980607	638	458185
1	230406895	639	460941
1	230833574	640	461842
1	231259178	641	456966
1	231685043	642	457496
1	232110605	643	458079
1	232537422	644	462001
1	232963420	645	459245
1	233389654	646	459139
1	233815583	647	458291
1	234241318	648	458556
1	234667374	649	459245
1	235091613	650	454687
1	235517911	651	460146
1	235941879	652	453256
1	236368036	653	460623
1	236794044	654	458662
1	237220357	655	460252
1	237647189	656	460729
1	238072388	657	457072
1	238498090	658	458927
1	238923827	659	457814
1	239348693	660	455641
1	239774663	661	459404
1	240200695	662	458980
1	240625005	663	454157
1	241051047	664	458344
1	241476295	665	457761
1	241901290	666	457178
1	242326440	667	456330
1	242751420	668	455641
1	243175679	669	454793
1	243601878	670	460358
1	244028546	671	459616
1	244453868	672	457496
1	244879006	673	457443
1	245304811	674	459086
1	245731668	675	461365
1	246157373	676	457761
1	246584802	677	462584
1	247010201	678	458185
1	247435337	679	457973
1	247860989	680	456860
1	248285875	681	456807
1	248710052	682	453892
1	249136115	683	459934
1	249562342	684	460411
1	249986835	685	453680
1	250413177	686	460570
1	250837757	687	454846
1	251262919	688	457655
1	251687969	689	455747
1	252112951	690	457178
1	252539010	691	459192
1	252964882	692	458715
1	253390164	693	456383
1	253816192	694	459404
1	254241197	695	455906
1	254666041	696	456648
1	255091260	697	456648
1	255518343	698	461418
1	255944091	699	458238
1	256370295	700	459934
1	256795071	701	456754
1	257221141	702	459351
1	257646357	703	456860
1	258072636	704	459775
1	258499034	705	460464
1	258925280	706	459828
1	259351208	707	457920
1	259775302	708	454740
1	260200516	709	457337
1	260625316	710	455535
1	261051719	711	459669
1	261476789	712	457178
1	261902833	713	460411
1	262328872	714	458344
1	262755341	715	459775
1	263180931	716	460040
1	263606124	717	456224
1	264032137	718	459775
1	264457117	719	456383
1	264882217	720	457284
1	265309566	721	462690
1	265734573	722	455588
1	266158770	723	454475
1	266584726	724	459245
1	267010019	725	457443
1	267436373	726	460252
1	267862551	727	459298
1	268288294	728	457602
1	268714606	729	460517
1	269139727	730	456754
1	269564906	731	456383
1	269992324	732	463538
1	270417391	733	455217
1	270842571	734	457337
1	271268613	735	459351
1	271693074	736	455747
1	272119440	737	460040
1	272544438	738	457125
1	272970436	739	458768
1	273395162	740	455323
1	273820030	741	457496
1	274245921	742	458662
1	274670274	743	455270
1	275095404	744	458503
1	275521390	745	458079
1	275946710	746	457390
1	276374182	747	462584
1	276799768	748	458556
1	277224392	749	454899
1	277650171	750	459404
1	278074514	751	456171
1	278501542	752	461683
1	278926312	753	454422
1	279351995	754	459192
1	279779077	755	460782
1	280205602	756	460464
1	280629384	757	453627
1	281055787	758	460146
1	281481465	759	458609
1	281906120	760	455588
1	282333876	761	462531
1	282759659	762	458291
1	283184750	763	457390
1	283610492	764	458132
1	284035552	765	459245
1	284462691	766	461630
1	284888098	767	456277
1	285314169	768	459616
1	285740381	769	459616
1	286165906	770	457602
1	286592245	771	460676
1	287016605	772	454846
1	287442225	773	457231
1	287868215	774	459722
1	288293010	775	455853
1	288718578	776	457443
1	289145540	777	460729
1	289571847	778	460093
1	289996953	779	456383
1	290423861	780	461842
1	290849798	781	459139
1	291275048	782	456330
1	291700168	783	457072
1	292127557	784	462425
1	292552498	785	456542
1	292978137	786	457231
1	293403799	787	458344
1	293828911	788	457867
1	294254531	789	458079
1	294680702	790	460517
1	295106611	791	456913
1	295530273	792	453468
1	295957625	793	464227
1	296383136	794	456648
1	296807708	795	456754
1	297232961	796	457814
1	297659174	797	458768
1	298085486	798	459669
1	298511559	799	460252
1	298937855	800	459033
1	299362249	801	455058
1	299787487	802	457920
1	300210996	803	453415
1	300635609	804	455959
1	301061371	805	458450
1	301488012	806	461365
1	301912721	807	454846
1	302338219	808	459457
1	302763249	809	455906
1	303188461	810	456489
1	303614512	811	459722
1	304040653	812	458768
1	304465857	813	456807
1	304891521	814	458821
1	305318022	815	459828
1	305742985	816	456595
1	306169018	817	459510
1	306595011	818	459722
1	307019765	819	456701
1	307446112	820	458980
1	307871401	821	455217
1	308296352	822	456595
1	308721068	823	455747
1	309146102	824	456913
1	309570268	825	455005
1	309995642	826	458344
1	310421351	827	457814
1	310846969	828	458185
1	311270758	829	452938
1	311697651	830	461842
1	312122308	831	456489
1	312547873	832	458238
1	312973046	833	457549
1	313398514	834	458026
1	313823459	835	456754
1	314248873	836	457549
1	314674183	837	457496
1	315098828	838	456542
1	315525265	839	459563
1	315951177	840	459881
1	316376841	841	457549
1	316803048	842	458980
1	317228327	843	457443
1	317654597	844	459192
1	318080796	845	459404
1	318506087	846	456595
1	318932227	847	460252
1	319358482	848	460305
1	319783236	849	455058
1	320209029	850	458450
1	320635402	851	459881
1	321059630	852	454687
1	321486254	853	460517
1	321912477	854	459457
1	322337395	855	457761
1	322764032	856	460411
1	323191180	857	461312
1	323616881	858	458821
1	324043377	859	459722
1	324470214	860	460888
1	324895304	861	457072
1	325322149	862	460040
1	325747610	863	457549
1	326174177	864	461206
1	326601158	865	461312
1	327025998	866	455323
1	327451134	867	456966
1	327876532	868	457337
1	328302106	869	457708
1	328727926	870	459934
1	329153799	871	458344
1	329578582	872	455005
1	330003948	873	458185
1	330427953	874	451931
1	330851466	875	453680
1	331276618	876	457178
1	331704270	877	462955
1	332131110	878	461365
1	332557738	879	459775
1	332983565	880	458450
1	333410212	881	460146
1	333834615	882	453680
1	334260674	883	461206
1	334686655	884	460040
1	335113568	885	459298
1	335537962	886	455853
1	335965106	887	462001
1	336389391	888	453521
1	336814304	889	457231
1	337240662	890	459669
1	337665630	891	456701
1	338092114	892	459616
1	338517478	893	458556
1	338942354	894	456277
1	339367457	895	456648
1	339792853	896	457708
1	340219247	897	460676
1	340645759	898	459987
1	341071762	899	458609
1	341496827	900	457178
1	341921614	901	456489
1	342347564	902	458874
1	342772103	903	456595
1	343198796	904	460411
1	343624389	905	457284
1	344050207	906	458397
1	344475467	907	457125
1	344901699	908	460252
1	345327513	909	457708
1	345752422	910	457496
1	346178073	911	457973
1	346603950	912	457973
1	347028572	913	454422
1	347453440	914	456754
1	347879123	915	458503
1	348304999	916	458450
1	348730582	917	457973
1	349155612	918	457231
1	349580944	919	457072
1	350006385	920	457761
1	350432938	921	459616
1	350858496	922	458556
1	351284264	923	458450
1	351708758	924	455058
1	352133914	925	458874
1	352561484	926	460994
1	352985699	927	455800
1	353411567	928	458980
1	353834917	929	452355
1	354259325	930	454687
1	354684898	931	458185
1	355109252	932	456118
1	355534125	933	456913
1	355960079	934	459245
1	356386992	935	460146
1	356812910	936	458609
1	357238640	937	457973
1	357664424	938	457920
1	358089268	939	457814
1	358515773	940	460517
1	358940027	941	455270
1	359365317	942	458397
1	359792440	943	460305
1	360217146	944	455482
1	360643539	945	460358
1	361069891	946	459298
1	361495052	947	456277
1	361919878	948	457072
1	362345851	949	458556
1	362771358	950	459245
1	363198137	951	459669
1	363622382	952	453839
1	364048128	953	458980
1	364473453	954	456860
1	364898154	955	456224
1	365323622	956	458344
1	365749110	957	456807
1	366175486	958	460146
1	366601131	959	458980
1	367027424	960	459298
1	367453621	961	459033
1	367879924	962	459828
1	368306090	963	458026
1	368732171	964	458556
1	369157102	965	457761
1	369583639	966	459616
1	370010012	967	459881
1	370435484	968	458132
1	370860680	969	456330
1	371285727	970	455694
1	371712175	971	460252
1	372138157	972	459298
1	372564106	973	459722
1	372989197	974	456754
1	373414918	975	457337
1	373839924	976	458291
1	374266798	977	459669
1	374691140	978	455482
1	375117565	979	459298
1	375542719	980	456701
1	375967215	981	456383
1	376394062	982	460676
1	376819978	983	458715
1	377247405	984	461895
1	377672543	985	456807
1	378098752	986	459987
1	378523914	987	456277
1	378951101	988	461948
1	379376011	989	456542
1	379801570	990	457337
1	380227557	991	459245
1	380651331	992	453044
1	381078357	993	462372
1	381504000	994	457814
1	381930635	995	459457
1	382356843	996	458715
1	382783031	997	460835
1	383209123	998	459404
1	383634311	999	455111
2	64015569	248	122
2	64441528	249	131
2	64867394	250	198
2	65292680	251	96
2	65719167	252	200
2	66144735	253	165
2	66569766	254	163
2	66995079	255	165
2	67421083	256	142
2	67846791	257	131
2	68272740	258	140
2	68698830	259	128
2	69125063	260	175
2	69550234	261	105
2	69976360	262	155
2	70402454	263	132
2	70828710	264	179
2	71253678	265	145
2	71680457	266	131
2	72106489	267	173
2	72532116	268	165
2	72957003	269	154
2	73382462	270	132
2	73808090	271	171
2	74233494	272	100
2	74660411	273	148
2	75086548	274	169
2	75512356	275	168
2	75938031	276	210
2	76362609	277	138
2	76789138	278	171
2	77215076	279	133
2	77640788	280	188
2	78064329	281	170
2	78489514	282	148
2	78915203	283	170
2	79340232	284	169
2	79764323	285	137
2	80191146	286	197
2	80615833	287	207
2	81040477	288	141
2	81465932	289	135
2	81892600	290	174
2	82317385	291	176
2	82743085	292	204
2	83167863	293	172
2	83593702	294	186
2	84019140	295	170
2	84444920	296	180
2	84870948	297	226
2	85295583	298	130
2	85722234	299	144
2	86147880	300	161
2	86573478	301	124
2	86999909	302	192
2	87424954	303	151
2	87850812	304	148
2	88277141	305	138
2	88702599	306	213
2	89126380	307	171
2	89550503	308	188
2	89975500	309	141
2	90401062	310	161
2	90826458	311	168
2	91252542	312	208
2	91677235	313	142
2	92103267	314	143
2	92528531	315	169
2	92954044	316	191
2	93378294	317	177
2	93803963	318	137
2	94229824	319	130
2	94656028	320	182
2	95081606	321	124
2	95507896	322	174
2	95933115	323	162
2	96358955	324	145
2	96784813	325	145
2	97211054	326	158
2	97636755	327	191
2	98061706	328	185
2	98486339	329	109
2	98912667	330	209
2	99337160	331	125
2	99763344	332	129
2	100189253	333	114
2	100616082	334	171
2	101041303	335	124
2	101467991	336	167
2	101893118	337	118
2	102319467	338	175
2	102743972	339	151
2	103169387	340	130
2	103595685	341	148
2	104020429	342	194
2	104445050	343	142
2	104870230	344	138
2	105295816	345	142
2	105721156	346	165
2	106146574	347	149
2	106571274	348	85
2	106998308	349	210
2	107422777	350	108
2	107847814	351	108
2	108274095	352	147
2	108699503	353	167
2	109124126	354	167
2	109549522	355	145
2	109974697	356	171
2	110399573	357	120
2	110825577	358	134
2	111251171	359	134
2	111677136	360	172
2	112102525	361	146
2	112528419	362	130
2	112955200	363	177
2	113379722	364	120
2	113805975	365	203
2	114231029	366	147
2	114656845	367	176
2	115081878	368	128
2	115508294	369	175
2	115932732	370	161
2	116357105	371	133
2	116783227	372	97
2	117209286	373	195
2	117634358	374	130
2	118059822	375	132
2	118485788	376	160
2	118911614	377	140
2	119336813	378	109
2	119763057	379	156
2	120189305	380	89
2	120615103	381	210
2	121039317	382	160
2	121464106	383	163
2	121888268	384	170
2	122313204	385	182
2	122738084	386	190
2	123161816	387	107
2	123588751	388	193
2	124013071	389	134
2	124439494	390	105
2	124865893	391	181
2	125290697	392	216
2	125714335	393	160
2	126140036	394	207
2	126563620	395	130
2	126988716	396	171
2	127413020	397	186
2	127836862	398	162
2	128261805	399	92
2	128687458	400	161
2	129111929	401	116
2	129538059	402	160
2	129962346	403	139
2	130388215	404	126
2	130814567	405	122
2	131240143	406	129
2	131666553	407	155
2	132091816	408	132
2	132518097	409	211
2	132942738	410	217
2	133367874	411	171
2	133792969	412	172
2	134218901	413	149
2	134644956	414	148
2	135071677	415	150
2	135497451	416	134
2	135923294	417	179
2	136349023	418	154
2	136775427	419	142
2	137201492	420	146
2	137626808	421	139
2	138053066	422	141
2	138478754	423	123
2	138905628	424	138
2	139331822	425	177
2	139757681	426	136
2	140184154	427	165
2	140609781	428	136
2	141035643	429	203
2	141460621	430	117
2	141887086	431	188
2	142312618	432	102
2	142739594	433	204
2	143164660	434	104
2	143591481	435	185
2	144017054	436	202
2	144442372	437	151
2	144867624	438	145
2	145293548	439	150
2	145719937	440	195
2	146144205	441	130
2	146569884	442	130
2	146994625	443	181
2	147418890	444	132
2	147845280	445	147
2	148271745	446	168
2	148695812	447	109
2	149122989	448	134
2	149548656	449	125
2	149975168	450	133
2	150400694	451	142
2	150826746	452	176
2	151251657	453	208
2	151675902	454	172
2	152101060	455	127
2	152526770	456	201
2	152951193	457	128
2	153376969	458	174
2	153801812	459	119
2	154227407	460	133
2	154652102	461	196
2	155076070	462	132
2	155501297	463	218
2	155924781	464	160
2	156350493	465	175
2	156775739	466	133
2	157200853	467	137
2	157626557	468	155
2	158051582	469	132
2	158477064	470	81
2	158903882	471	176
2	159329038	472	151
2	159755137	473	177
2	160180423	474	129
2	160606650	475	151
2	161032780	476	150
2	161458692	477	116
2	161885280	478	168
2	162311038	479	114
2	162737391	480	246
2	163161068	481	130
2	163587201	482	130
2	164013248	483	143
2	164439202	484	137
2	164865985	485	180
2	165291322	486	178
2	165716324	487	97
2	166143193	488	174
2	166568030	489	148
2	166993471	490	179
2	167418547	491	187
2	167843642	492	166
2	168269010	493	147
2	168694954	494	100
2	169121311	495	140
2	169546476	496	121
2	169973040	497	191
2	170397417	498	105
2	170823626	499	202
2	171247396	500	165
2	171672884	501	132
2	172098900	502	146
2	172524546	503	147
2	172949033	504	186
2	173373675	505	123
2	173799154	506	144
2	174224923	507	190
2	174649377	508	172
2	175075186	509	140
2	175501018	510	158
2	175925798	511	127
2	176351380	512	142
2	176777548	513	194
2	177202152	514	120
2	177629222	515	188
2	178054565	516	179
2	178480072	517	151
2	178904938	518	119
2	179331801	519	212
2	179755855	520	120
2	180182325	521	173
2	180607860	522	175
2	181033511	523	131
2	181460247	524	205
2	181884782	525	196
2	182309460	526	155
2	182734895	527	156
2	183160115	528	143
2	183586470	529	136
2	184011871	530	176
2	184437182	531	155
2	184863225	532	200
2	185288076	533	231
2	185712579	534	153
2	186138477	535	183
2	186563893	536	206
2	186988733	537	204
2	187413995	538	198
2	187838174	539	137
2	188264017	540	133
2	188689753	541	151
2	189115127	542	128
2	189541682	543	148
2	189967341	544	170
2	190393110	545	135
2	190819218	546	142
2	191245942	547	145
2	191671951	548	140
2	192098455	549	156
2	192524574	550	137
2	192950544	551	148
2	193376655	552	215
2	193801137	553	126
2	194227269	554	270
2	194651159	555	181
2	195076500	556	181
2	195502668	557	179
2	195927755	558	167
2	196353682	559	143
2	196779525	560	98
2	197206004	561	120
2	197632499	562	130
2	198059279	563	138
2	198485067	564	195
2	198910480	565	129
2	199336438	566	108
2	199763148	567	154
2	200188788	568	155
2	200615313	569	157
2	201041485	570	190
2	201466549	571	95
2	201893736	572	192
2	202319248	573	169
2	202745166	574	168
2	203171159	575	131
2	203596963	576	173
2	204022559	577	204
2	204447301	578	159
2	204872722	579	131
2	205298306	580	158
2	205724413	581	217
2	206148520	582	181
2	206573922	583	185
2	206998362	584	205
2	207423396	585	225
2	207847837	586	165
2	208273232	587	225
2	208696859	588	172
2	209122457	589	187
2	209547268	590	173
2	209972837	591	176
2	210397854	592	183
2	210822111	593	121
2	211248084	594	192
2	211672384	595	167
2	212098128	596	167
2	212523413	597	137
2	212949429	598	183
2	213374562	599	167
2	213800653	600	197
2	214226316	601	118
2	214652556	602	129
2	215078840	603	139
2	215504609	604	155
2	215930146	605	150
2	216355121	606	95
2	216782164	607	145
2	217208234	608	257
2	217632453	609	159
2	218057910	610	213
2	218482311	611	154
2	218907560	612	121
2	219334604	613	178
2	219759980	614	102
2	220186611	615	171
2	220611466	616	150
2	221037236	617	117
2	221463438	618	179
2	221888056	619	79
2	222315111	620	152
2	222740918	621	134
2	223167582	622	151
2	223593093	623	152
2	224019570	624	157
2	224445013	625	104
2	224871726	626	161
2	225296762	627	153
2	225722233	628	158
2	226147924	629	121
2	226574394	630	188
2	226999818	631	125
2	227426222	632	141
2	227851756	633	121
2	228278941	634	127
2	228705621	635	239
2	229129710	636	205
2	229554820	637	158
2	229980607	638	121
2	230406895	639	94
2	230833574	640	170
2	231259178	641	181
2	231685043	642	179
2	232110605	643	113
2	232537422	644	157
2	232963420	645	142
2	233389654	646	155
2	233815583	647	146
2	234241318	648	144
2	234667374	649	200
2	235091613	650	129
2	235517911	651	207
2	235941879	652	125
2	236368036	653	134
2	236794044	654	106
2	237220357	655	111
2	237647189	656	150
2	238072388	657	152
2	238498090	658	144
2	238923827	659	215
2	239348693	660	149
2	239774663	661	150
2	240200695	662	216
2	240625005	663	172
2	241051047	664	184
2	241476295	665	170
2	241901290	666	189
2	242326440	667	227
2	242751420	668	231
2	243175679	669	115
2	243601878	670	134
2	244028546	671	198
2	244453868	672	179
2	244879006	673	140
2	245304811	674	109
2	245731668	675	148
2	246157373	676	90
2	246584802	677	147
2	247010201	678	186
2	247435337	679	169
2	247860989	680	190
2	248285875	681	207
2	248710052	682	138
2	249136115	683	122
2	249562342	684	209
2	249986835	685	127
2	250413177	686	213
2	250837757	687	165
2	251262919	688	216
2	251687969	689	191
2	252112951	690	127
2	252539010	691	162
2	252964882	692	198
2	253390164	693	158
2	253816192	694	205
2	254241197	695	187
2	254666041	696	213
2	255091260	697	114
2	255518343	698	163
2	255944091	699	114
2	256370295	700	187
2	256795071	701	143
2	257221141	702	179
2	257646357	703	136
2	258072636	704	114
2	258499034	705	121
2	258925280	706	159
2	259351208	707	250
2	259775302	708	182
2	260200516	709	169
2	260625316	710	139
2	261051719	711	180
2	261476789	712	124
2	261902833	713	137
2	262328872	714	135
2	262755341	715	125
2	263180931	716	165
2	263606124	717	121
2	264032137	718	203
2	264457117	719	183
2	264882217	720	91
2	265309566	721	206
2	265734573	722	219
2	266158770	723	152
2	266584726	724	180
2	267010019	725	130
2	267436373	726	135
2	267862551	727	183
2	268288294	728	119
2	268714606	729	176
2	269139727	730	177
2	269564906	731	69
2	269992324	732	184
2	270417391	733	171
2	270842571	734	127
2	271268613	735	191
2	271693074	736	102
2	272119440	737	156
2	272544438	738	134
2	272970436	739	203
2	273395162	740	161
2	273820030	741	138
2	274245921	742	175
2	274670274	743	116
2	275095404	744	118
2	275521390	745	175
2	275946710	746	100
2	276374182	747	142
2	276799768	748	204
2	277224392	749	134
2	277650171	750	164
2	278074514	751	108
2	278501542	752	224
2	278926312	753	154
2	279351995	754	131
2	279779077	755	119
2	280205602	756	217
2	280629384	757	109
2	281055787	758	157
2	281481465	759	224
2	281906120	760	95
2	282333876	761	149
2	282759659	762	160
2	283184750	763	144
2	283610492	764	130
2	284035552	765	112
2	284462691	766	173
2	284888098	767	146
2	285314169	768	142
2	285740381	769	157