version 2
run QLearnCC-0-20100907-23:57:36-2500
attr configname QLearnCC
attr datetime 20100907-23:57:36
attr experiment QLearnCC
attr inifile D:/Developement/Oversim2/multic/simulations/omnetpp.ini
attr iterationvars $mpeers=10
attr iterationvars2 "$mpeers=10, $repetition=0"
attr measurement $mpeers=10
attr mpeers 10
attr network oversim.underlay.simpleunderlay.SimpleUnderlayNetwork
attr processid 2500
attr repetition 0
attr replication #0
attr resultdir results
attr runnumber 0
attr seedset 0

vector 1  SimpleUnderlayNetwork.globalObserver.globalStatistics  incoming_bytes  ETV
vector 2  SimpleUnderlayNetwork.globalObserver.globalStatistics  drops  ETV
vector 3  SimpleUnderlayNetwork.globalObserver.globalStatistics  delayed_acks  ETV
vector 4  SimpleUnderlayNetwork.globalObserver.globalStatistics  timetotimeouts  ETV
vector 5  SimpleUnderlayNetwork.globalObserver.globalStatistics  9rateOf1To0  ETV
vector 6  SimpleUnderlayNetwork.globalObserver.globalStatistics  max9RateOf1To0  ETV
vector 7  SimpleUnderlayNetwork.globalObserver.globalStatistics  9rateOf1To1  ETV
vector 8  SimpleUnderlayNetwork.globalObserver.globalStatistics  max9RateOf1To1  ETV
vector 9  SimpleUnderlayNetwork.globalObserver.globalStatistics  9rateOf1To2  ETV
vector 10  SimpleUnderlayNetwork.globalObserver.globalStatistics  max9RateOf1To2  ETV
vector 11  SimpleUnderlayNetwork.globalObserver.globalStatistics  9rateOf1To3  ETV
vector 12  SimpleUnderlayNetwork.globalObserver.globalStatistics  max9RateOf1To3  ETV
vector 13  SimpleUnderlayNetwork.globalObserver.globalStatistics  9rateOf1To4  ETV
vector 14  SimpleUnderlayNetwork.globalObserver.globalStatistics  max9RateOf1To4  ETV
vector 15  SimpleUnderlayNetwork.globalObserver.globalStatistics  9rateOf1To5  ETV
vector 16  SimpleUnderlayNetwork.globalObserver.globalStatistics  max9RateOf1To5  ETV
vector 17  SimpleUnderlayNetwork.globalObserver.globalStatistics  9rateOf1To6  ETV
vector 18  SimpleUnderlayNetwork.globalObserver.globalStatistics  max9RateOf1To6  ETV
vector 19  SimpleUnderlayNetwork.globalObserver.globalStatistics  9rateOf1To7  ETV
vector 20  SimpleUnderlayNetwork.globalObserver.globalStatistics  max9RateOf1To7  ETV
vector 21  SimpleUnderlayNetwork.globalObserver.globalStatistics  9rateOf1To8  ETV
vector 22  SimpleUnderlayNetwork.globalObserver.globalStatistics  max9RateOf1To8  ETV
vector 23  SimpleUnderlayNetwork.globalObserver.globalStatistics  1rate  ETV
vector 24  SimpleUnderlayNetwork.globalObserver.globalStatistics  max2Rate  ETV
vector 25  SimpleUnderlayNetwork.globalObserver.globalStatistics  "GlobalNodeList: Number of nodes"  ETV
vector 26  SimpleUnderlayNetwork.globalObserver.globalStatistics  "GlobalNodeList: Number of bootstrapped malicious nodes"  ETV
1	122817197	6009	38796
1	122837497	6010	39962
1	122858049	6011	39379
1	122878147	6012	39061
1	122898679	6013	39803
1	122918839	6014	39061
1	122938903	6015	39167
1	122959029	6016	38849
1	122979560	6017	40439
1	122999617	6018	38266
1	123019966	6019	40121
1	123040359	6020	39644
1	123060683	6021	38955
1	123081130	6022	39909
1	123101192	6023	38849
1	123121434	6024	39697
1	123141630	6025	39008
1	123161895	6026	39220
1	123182245	6027	39273
1	123202536	6028	39485
1	123222895	6029	39803
1	123243250	6030	39432
1	123263631	6031	39220
1	123283977	6032	40015
1	123304301	6033	39485
1	123324685	6034	39432
1	123345026	6035	39485
1	123365047	6036	38796
1	123385188	6037	39008
1	123405671	6038	40227
1	123426077	6039	39167
1	123446406	6040	39273
1	123466964	6041	40227
1	123487132	6042	39432
1	123507497	6043	39644
1	123527991	6044	39379
1	123548300	6045	39591
1	123568658	6046	39220
1	123589065	6047	39591
1	123609584	6048	39803
1	123629775	6049	39220
1	123650167	6050	39273
1	123670634	6051	40598
1	123691027	6052	39273
1	123711229	6053	38902
1	123731636	6054	39962
1	123751825	6055	38955
1	123772236	6056	39644
1	123792471	6057	39008
1	123812686	6058	40227
1	123833100	6059	39273
1	123853340	6060	39167
1	123873695	6061	39485
1	123894189	6062	39962
1	123914504	6063	39220
1	123934696	6064	39644
1	123954942	6065	38955
1	123975369	6066	39432
1	123995762	6067	39644
1	124016095	6068	39591
1	124036523	6069	39803
1	124056784	6070	39114
1	124077319	6071	40227
1	124097646	6072	39591
1	124117969	6073	38902
1	124138416	6074	40068
1	124158791	6075	39379
1	124179034	6076	39379
1	124199510	6077	39591
1	124219732	6078	39008
1	124240468	6079	40863
1	124260582	6080	38796
1	124281120	6081	40227
1	124301517	6082	39326
1	124321864	6083	39750
1	124342334	6084	39538
1	124362898	6085	39856
1	124383008	6086	39326
1	124403552	6087	39962
1	124423939	6088	39061
1	124444372	6089	39750
1	124464910	6090	39856
1	124485436	6091	39856
1	124505821	6092	39644
1	124526295	6093	39909
1	124546601	6094	39220
1	124567213	6095	40227
1	124587298	6096	38796
1	124607653	6097	39432
1	124628071	6098	39644
1	124648252	6099	39909
1	124668709	6100	39167
1	124689019	6101	38637
1	124709507	6102	41022
1	124729915	6103	39008
1	124750118	6104	39167
1	124770661	6105	39750
1	124791155	6106	40280
1	124811311	6107	39114
1	124831671	6108	39167
1	124851735	6109	39167
1	124872159	6110	39909
1	124892499	6111	39326
1	124912830	6112	39326
1	124933138	6113	39485
1	124953442	6114	39644
1	124973802	6115	39273
1	124994150	6116	39167
1	125014527	6117	39909
1	125034886	6118	39326
1	125055082	6119	39909
1	125075522	6120	39644
1	125095823	6121	39114
1	125116058	6122	38902
1	125136585	6123	39750
1	125156884	6124	39803
1	125177242	6125	39167
1	125197504	6126	39485
1	125217641	6127	39167
1	125237824	6128	39379
1	125258355	6129	39856
1	125278336	6130	38902
1	125298877	6131	39856
1	125319214	6132	39644
1	125339605	6133	39485
1	125359931	6134	39220
1	125380171	6135	39326
1	125400451	6136	39326
1	125420839	6137	39644
1	125441207	6138	39591
1	125461564	6139	40121
1	125481865	6140	38849
1	125502223	6141	39167
1	125522653	6142	40068
1	125542901	6143	39273
1	125563100	6144	39538
1	125583596	6145	39273
1	125603786	6146	39326
1	125624155	6147	39591
1	125644434	6148	39644
1	125664772	6149	39326
1	125685332	6150	39803
1	125705511	6151	39273
1	125725832	6152	39167
1	125746101	6153	39591
1	125766276	6154	39167
1	125786803	6155	39591
1	125806985	6156	39485
1	125827336	6157	39485
1	125847765	6158	39750
1	125868160	6159	39644
1	125888592	6160	39538
1	125909026	6161	39644
1	125929483	6162	39591
1	125949889	6163	39962
1	125970115	6164	38796
1	125990842	6165	40598
1	126011227	6166	39485
1	126031440	6167	39432
1	126051776	6168	39538
1	126071923	6169	38849
1	126092258	6170	39432
1	126112489	6171	39220
1	126133114	6172	39962
1	126153452	6173	39750
1	126173753	6174	39379
1	126194151	6175	39591
1	126214414	6176	39167
1	126234962	6177	40015
1	126255331	6178	39591
1	126275686	6179	39538
1	126295922	6180	39379
1	126316279	6181	39432
1	126336519	6182	39432
1	126357012	6183	39750
1	126377458	6184	39962
1	126397852	6185	39591
1	126418363	6186	39591
1	126438758	6187	39750
1	126458977	6188	38849
1	126479346	6189	39591
1	126499790	6190	39856
1	126520060	6191	39273
1	126540170	6192	39167
1	126560758	6193	39909
1	126581026	6194	39538
1	126601481	6195	39803
1	126621741	6196	38902
1	126641973	6197	39379
1	126662199	6198	39326
1	126682604	6199	40068
1	126702877	6200	38743
1	126723150	6201	39591
1	126743537	6202	39379
1	126763912	6203	39803
1	126784338	6204	39326
1	126804861	6205	40068
1	126825188	6206	39379
1	126845850	6207	40227
1	126866162	6208	39697
1	126886556	6209	39432
1	126906957	6210	39485
1	126927340	6211	39326
1	126947670	6212	39856
1	126968126	6213	39538
1	126988523	6214	39644
1	127009102	6215	39803
1	127029586	6216	39962
1	127049956	6217	39485
1	127070295	6218	39432
1	127090435	6219	38743
1	127111026	6220	40068
1	127131518	6221	40386
1	127151781	6222	39220
1	127171985	6223	38849
1	127192543	6224	39856
1	127212827	6225	39485
1	127233235	6226	39962
1	127253671	6227	39326
1	127273950	6228	39432
1	127294323	6229	39803
1	127314504	6230	38955
1	127334955	6231	39750
1	127355432	6232	39538
1	127375710	6233	39750
1	127395885	6234	39114
1	127416399	6235	39591
1	127436634	6236	39379
1	127456947	6237	39167
1	127477265	6238	40015
1	127497459	6239	39114
1	127518183	6240	40068
1	127538410	6241	39379
1	127558913	6242	39962
1	127579249	6243	39432
1	127599628	6244	39432
1	127619823	6245	39114
1	127640352	6246	40227
1	127660857	6247	39538
1	127681449	6248	39909
1	127701564	6249	39538
1	127722041	6250	39591
1	127742320	6251	39220
1	127762631	6252	39379
1	127783182	6253	40386
1	127803560	6254	38849
1	127823861	6255	39326
1	127844087	6256	39856
1	127864754	6257	39750
1	127885238	6258	39962
1	127905469	6259	39273
1	127925824	6260	39379
1	127946238	6261	39538
1	127966749	6262	39962
1	127987144	6263	39379
1	128007350	6264	39114
1	128027709	6265	39644
1	128048165	6266	39803
1	128068512	6267	39432
1	128088847	6268	39485
1	128109134	6269	39379
1	128129560	6270	40174
1	128149927	6271	38902
1	128170145	6272	39909
1	128190406	6273	39379
1	128210887	6274	39379
1	128231470	6275	39591
1	128251932	6276	40333
1	128272400	6277	39750
1	128292833	6278	39803
1	128313634	6279	40015
1	128334199	6280	39962
1	128354612	6281	39538
1	128374916	6282	39379
1	128395557	6283	39962
1	128415946	6284	40015
1	128436397	6285	39273
1	128456855	6286	39644
1	128477233	6287	39856
1	128497741	6288	39856
1	128518201	6289	39750
1	128538887	6290	39750
1	128559263	6291	39697
1	128579528	6292	39538
1	128599804	6293	39538
1	128620343	6294	39432
1	128640696	6295	39697
1	128661184	6296	39909
1	128681705	6297	39962
1	128702213	6298	39273
1	128722531	6299	39856
1	128742947	6300	39485
1	128763579	6301	40227
1	128783824	6302	39114
1	128804309	6303	39697
1	128824617	6304	39750
1	128845128	6305	40015
1	128865247	6306	38319
1	128885744	6307	40439
1	128906195	6308	39061
1	128926653	6309	40068
1	128947290	6310	40651
1	128967827	6311	39697
1	128988263	6312	39379
1	129008794	6313	40280
1	129029382	6314	39326
1	129049870	6315	40386
1	129070382	6316	39326
1	129090793	6317	39644
1	129111200	6318	39750
1	129131650	6319	39962
1	129152247	6320	39485
1	129172741	6321	39856
1	129193087	6322	39697
1	129213666	6323	39803
1	129234442	6324	39909
1	129254828	6325	40121
1	129275362	6326	39644
1	129295726	6327	39697
1	129316469	6328	40545
1	129336880	6329	39061
1	129357231	6330	39644
1	129377550	6331	39591
1	129398055	6332	39697
1	129418231	6333	39750
1	129438734	6334	38902
1	129459044	6335	39803
1	129479633	6336	40333
1	129500119	6337	39379
1	129520497	6338	40015
1	129540879	6339	38955
1	129561209	6340	39909
1	129581582	6341	39326
1	129602007	6342	40068
1	129622542	6343	39750
1	129643109	6344	39591
1	129663375	6345	39538
1	129683868	6346	39379
1	129704442	6347	40492
1	129724759	6348	39167
1	129745232	6349	39697
1	129765651	6350	39538
1	129785998	6351	39538
1	129806343	6352	39856
1	129826680	6353	39432
1	129847270	6354	39962
1	129867713	6355	39538
1	129888009	6356	39326
1	129908474	6357	40121
1	129928894	6358	39803
1	129949299	6359	38955
1	129969790	6360	39803
1	129990113	6361	39962
1	130010364	6362	39326
1	130030824	6363	39538
1	130051167	6364	39750
1	130071515	6365	39485
1	130091874	6366	38955
1	130112425	6367	39962
1	130132936	6368	39803
1	130153378	6369	39697
1	130173651	6370	39538
1	130194264	6371	40280
1	130214479	6372	38849
1	130234764	6373	39432
1	130255341	6374	40227
1	130275542	6375	38955
1	130296128	6376	40015
1	130316640	6377	39803
1	130337172	6378	40121
1	130357494	6379	39326
1	130377748	6380	39114
1	130398225	6381	40015
1	130418647	6382	40121
1	130439081	6383	39114
1	130459625	6384	40174
1	130480046	6385	39432
1	130500460	6386	39591
1	130520743	6387	39485
1	130541283	6388	39909
1	130561567	6389	39008
1	130581905	6390	39538
1	130602211	6391	39538
1	130622526	6392	39591
1	130642797	6393	39538
1	130663284	6394	39538
1	130683664	6395	39909
1	130704118	6396	39432
1	130724587	6397	39909
1	130745011	6398	39432
1	130765339	6399	39644
1	130785631	6400	39697
1	130806426	6401	40068
1	130826805	6402	39379
1	130847093	6403	39538
1	130867512	6404	39909
1	130888046	6405	39379
1	130908289	6406	39220
1	130928720	6407	39803
1	130949358	6408	40545
1	130969703	6409	39379
1	130990120	6410	39379
1	131010303	6411	39061
1	131030838	6412	40174
1	131051209	6413	39697
1	131071622	6414	39061
1	131091781	6415	39273
1	131112154	6416	39856
1	131132745	6417	39538
1	131153280	6418	40121
1	131173514	6419	39220
1	131194059	6420	39750
1	131214579	6421	40068
1	131235171	6422	39962
1	131255702	6423	40015
1	131276229	6424	39750
1	131296579	6425	39591
1	131316957	6426	39538
1	131337231	6427	39061
1	131357644	6428	39856
1	131378044	6429	39379
1	131398451	6430	39962
1	131418981	6431	40121
1	131439407	6432	39061
1	131459803	6433	39273
1	131480258	6434	40015
1	131500501	6435	39591
1	131521148	6436	39697
1	131541541	6437	39856
1	131562284	6438	40333
1	131582828	6439	39485
1	131603278	6440	39697
1	131623570	6441	39697
1	131643954	6442	39591
1	131664305	6443	39856
1	131684702	6444	38849
1	131704972	6445	39485
1	131725566	6446	40068
1	131745988	6447	39591
1	131766281	6448	39538
1	131786706	6449	39856
1	131807350	6450	39962
1	131827636	6451	39114
1	131847943	6452	39644
1	131868329	6453	39379
1	131888849	6454	40015
1	131909176	6455	39697
1	131929762	6456	39856
1	131950166	6457	40121
1	131970900	6458	39485
1	131991235	6459	39432
1	132011435	6460	39591
1	132032035	6461	40015
1	132052376	6462	39485
1	132072710	6463	39379
1	132093280	6464	39591
1	132113658	6465	39697
1	132133989	6466	39750
1	132154459	6467	39750
1	132174750	6468	39326
1	132195180	6469	39432
1	132215557	6470	39962
1	132236063	6471	39485
1	132256695	6472	40280
1	132277067	6473	39379
1	132297537	6474	39644
1	132317955	6475	39909
1	132338164	6476	39432
1	132358650	6477	39697
1	132379313	6478	40015
1	132399834	6479	39485
1	132420246	6480	39803
1	132440607	6481	39750
1	132460959	6482	39273
1	132481292	6483	39644
1	132501715	6484	39591
1	132522047	6485	39273
1	132542512	6486	39697
1	132562692	6487	39379
1	132583095	6488	39485
1	132603504	6489	40015
1	132624000	6490	39273
1	132644182	6491	39379
1	132664794	6492	40121
1	132685202	6493	39856
1	132705535	6494	38955
1	132726045	6495	39962
1	132746707	6496	40068
1	132767017	6497	39591
1	132787495	6498	39644
1	132808101	6499	40333
1	132828408	6500	39591
1	132848742	6501	39114
1	132869273	6502	40068
1	132889855	6503	39697
1	132910159	6504	39591
1	132930615	6505	39962
1	132950946	6506	38955
1	132971330	6507	39644
1	132991683	6508	40015
1	133012164	6509	39379
1	133032465	6510	39167
1	133052925	6511	40174
1	133073311	6512	39962
1	133094026	6513	39538
1	133114476	6514	39962
1	133134673	6515	39061
1	133155013	6516	39538
1	133175554	6517	39379
1	133195867	6518	39750
1	133216315	6519	39697
1	133236552	6520	39326
1	133256829	6521	39432
1	133277054	6522	39008
1	133297546	6523	40068
1	133317728	6524	39379
1	133338123	6525	39114
1	133358384	6526	40121
1	133378871	6527	39485
1	133399095	6528	38849
1	133419319	6529	39485
1	133439447	6530	38425
1	133459885	6531	40227
1	133480258	6532	39591
1	133500796	6533	39856
1	133521191	6534	39591
1	133541432	6535	39379
1	133561697	6536	39432
1	133582179	6537	40015
1	133602623	6538	39379
1	133623105	6539	39856
1	133643345	6540	38902
1	133663435	6541	39220
1	133683897	6542	39644
1	133704395	6543	39432
1	133724856	6544	40227
1	133745199	6545	39220
1	133765500	6546	39644
1	133785923	6547	39538
1	133806355	6548	39962
1	133826552	6549	39220
1	133847185	6550	39803
1	133867446	6551	39326
1	133887673	6552	39114
1	133908129	6553	39697
1	133928448	6554	39909
1	133948892	6555	39326
1	133969307	6556	39644
1	133989706	6557	39697
1	134009656	6558	38902
1	134030064	6559	39273
1	134050570	6560	40280
1	134070720	6561	39273
1	134091475	6562	40174
1	134111653	6563	38955
1	134131893	6564	39273
1	134152147	6565	39432
1	134172801	6566	40492
1	134192986	6567	38955
1	134213657	6568	39962
1	134233983	6569	39114
1	134254417	6570	40280
1	134274661	6571	38796
1	134295117	6572	39538
1	134315349	6573	39591
1	134335905	6574	40015
1	134356203	6575	39220
1	134376501	6576	39591
1	134396891	6577	39750
1	134417107	6578	38955
1	134437632	6579	39644
1	134458184	6580	39909
1	134478458	6581	39909
1	134498824	6582	38955
1	134519251	6583	40015
1	134539494	6584	38902
1	134559742	6585	39485
1	134579920	6586	39220
1	134600199	6587	39750
1	134620369	6588	38902
1	134640696	6589	39538
1	134660899	6590	38902
1	134681465	6591	40015
1	134701661	6592	39273
1	134722031	6593	39697
1	134742262	6594	39061
1	134762725	6595	39750
1	134783016	6596	39697
1	134803378	6597	39326
1	134823668	6598	39061
1	134844070	6599	39962
1	134864445	6600	39697
1	134884714	6601	38796
1	134904922	6602	39750
1	134925140	6603	38955
1	134945464	6604	39697
1	134965858	6605	39538
1	134986065	6606	39167
1	135006398	6607	39432
1	135026491	6608	38796
1	135046896	6609	39909
1	135067398	6610	39803
1	135087759	6611	39061
1	135107917	6612	39538
1	135128423	6613	39750
1	135148709	6614	39326
1	135169100	6615	39432
1	135189480	6616	40068
1	135209874	6617	39750
1	135230124	6618	38902
1	135250405	6619	39326
1	135270448	6620	38690
1	135290877	6621	40121
1	135311328	6622	39697
1	135331697	6623	39644
1	135352005	6624	38955
1	135372461	6625	39644
1	135392868	6626	40174
1	135413142	6627	39061
1	135433615	6628	39962
1	135453705	6629	38955
1	135474253	6630	39856
1	135494721	6631	40015
1	135514987	6632	39167
1	135535403	6633	39591
1	135555904	6634	39485
1	135576293	6635	40015
1	135596708	6636	39644
1	135616888	6637	39220
1	135637189	6638	39167
1	135657739	6639	39485
1	135678081	6640	39856
1	135698303	6641	39485
1	135718658	6642	39538
1	135738971	6643	39061
1	135759595	6644	40545
1	135779816	6645	38584
1	135800252	6646	39697
1	135820423	6647	39273
1	135840819	6648	39856
1	135861366	6649	39909
1	135881628	6650	39273
1	135902021	6651	38955
1	135922508	6652	40863
1	135942721	6653	38690
1	135963131	6654	39962
1	135983433	6655	39220
1	136003784	6656	39485
1	136023972	6657	39538
1	136044345	6658	39220
1	136064646	6659	39697
1	136084797	6660	39008
1	136105321	6661	39856
1	136125703	6662	39697
1	136146186	6663	39803
1	136166529	6664	39379
1	136186926	6665	39591
1	136207393	6666	39432
1	136227825	6667	39697
1	136248412	6668	39962
1	136268849	6669	39803
1	136289250	6670	39379
1	136309777	6671	39803
1	136330261	6672	39962
1	136350665	6673	39432
1	136371026	6674	39803
1	136391384	6675	40015
1	136411688	6676	38584
1	136432216	6677	40174
1	136452490	6678	39379
1	136473111	6679	40280
1	136493482	6680	39114
1	136513947	6681	39909
1	136534376	6682	39273
1	136554739	6683	40015
1	136575197	6684	40068
1	136595723	6685	38902
1	136616196	6686	40280
1	136636511	6687	39379
1	136657095	6688	40333
1	136677344	6689	38690
1	136697899	6690	40386
1	136718481	6691	40227
1	136738659	6692	38584
1	136758999	6693	39856
1	136779204	6694	38743
1	136799770	6695	40068
1	136820107	6696	39591
1	136840217	6697	39061
1	136860700	6698	39856
1	136880980	6699	39273
1	136901416	6700	39697
1	136921581	6701	39220
1	136941947	6702	39803
1	136962447	6703	39379
1	136982742	6704	39644
1	137003092	6705	39485
1	137023521	6706	39750
1	137043783	6707	39697
1	137064136	6708	38902
1	137084189	6709	39008
1	137104627	6710	39644
1	137125029	6711	39962
1	137145517	6712	39538
1	137165758	6713	39591
1	137186203	6714	39697
1	137206448	6715	39326
1	137226690	6716	38690
1	137246936	6717	39856
1	137267415	6718	39591
1	137287633	6719	39008
1	137308059	6720	39803
1	137328285	6721	39008
1	137348434	6722	39379
1	137368755	6723	39538
1	137389011	6724	39538
1	137409184	6725	39273
1	137429592	6726	39326
1	137450033	6727	39750
1	137470413	6728	39220
1	137490822	6729	40174
1	137511185	6730	39379
1	137531561	6731	39273
1	137551827	6732	39644
1	137572162	6733	39167
1	137592470	6734	39697
1	137612760	6735	38849
1	137632985	6736	39538
1	137653399	6737	40015
1	137673636	6738	38743
1	137693914	6739	40121
1	137714500	6740	39485
1	137734746	6741	39326
1	137755191	6742	39644
1	137775717	6743	39803
1	137796036	6744	39750
1	137816130	6745	38849
1	137836543	6746	39379
1	137857020	6747	39697
1	137877337	6748	39485
1	137897342	6749	39008
1	137917665	6750	39432
1	137938016	6751	39750
1	137958497	6752	39538
1	137978762	6753	39273
1	137999096	6754	39432
1	138019598	6755	39644
1	138039844	6756	39432
1	138060700	6757	40121
1	138080780	6758	39432
1	138101024	6759	39114
1	138121442	6760	40015
1	138141782	6761	39008
1	138162229	6762	40015
1	138182718	6763	40068
1	138203297	6764	39856
1	138223619	6765	39326
1	138244271	6766	40386
1	138264638	6767	39485
1	138285208	6768	39644
1	138305494	6769	39485
1	138325897	6770	39273
1	138346398	6771	40174
1	138366638	6772	39326
1	138386943	6773	39167
1	138407660	6774	40280
1	138428033	6775	40121
1	138448376	6776	39114
1	138468877	6777	39856
1	138489216	6778	39379
1	138509812	6779	39538
1	138530056	6780	39962
1	138550716	6781	39909
1	138571160	6782	39803
1	138591533	6783	39485
1	138611767	6784	38902
1	138632186	6785	40386
1	138652634	6786	39644
1	138673205	6787	39432
1	138693665	6788	40121
1	138714146	6789	39273
1	138734383	6790	39220
1	138754848	6791	40068
1	138775230	6792	39803
1	138795711	6793	39220
1	138815913	6794	39220
1	138836246	6795	39697
1	138856807	6796	40280
1	138877203	6797	39432
1	138897613	6798	39326
1	138917915	6799	39856
1	138938341	6800	39379
1	138958637	6801	39485
1	138979087	6802	39803
1	138999492	6803	39432
1	139019656	6804	39167
1	139039992	6805	39591
1	139060383	6806	39803
1	139080681	6807	39379
1	139101147	6808	39962
1	139121732	6809	39220
1	139142106	6810	39485
1	139162254	6811	39326
1	139182715	6812	39644
1	139202896	6813	39326
1	139223219	6814	39644
1	139243523	6815	38902
1	139263703	6816	39644
1	139284126	6817	39538
1	139304540	6818	39591
1	139324933	6819	40015
1	139345092	6820	38743
1	139365662	6821	40174
1	139386102	6822	39379
1	139406479	6823	39697
1	139426710	6824	39220
1	139447114	6825	39962
1	139467451	6826	39273
1	139487690	6827	39114
1	139507724	6828	39220
1	139528081	6829	38955
1	139548594	6830	40280
1	139569146	6831	39803
1	139589403	6832	39273
1	139609807	6833	39379
1	139630236	6834	39909
1	139650740	6835	39909
1	139671072	6836	39379
1	139691369	6837	39326
1	139711908	6838	39538
1	139732379	6839	40386
1	139752849	6840	39538
1	139773174	6841	39697
1	139793303	6842	38743
1	139813728	6843	39485
1	139834274	6844	40015
1	139854612	6845	39644
1	139874942	6846	39538
1	139895461	6847	39591
1	139915769	6848	39273
1	139936058	6849	40121
1	139956524	6850	39538
1	139976813	6851	39326
1	139996944	6852	38955
1	140017318	6853	39750
1	140037614	6854	39114
1	140057959	6855	39644
1	140078198	6856	39114
1	140098601	6857	40121
1	140118873	6858	39167
1	140139275	6859	39644
1	140159860	6860	39803
1	140180115	6861	39591
1	140200493	6862	39432
1	140220795	6863	39273
1	140241180	6864	39591
1	140261641	6865	39803
1	140282053	6866	39909
1	140302295	6867	38902
1	140322612	6868	39538
1	140342809	6869	39114
1	140363326	6870	39909
1	140383653	6871	39220
1	140403769	6872	39591
1	140424296	6873	39432
1	140444737	6874	39856
1	140465013	6875	39538
1	140485424	6876	39220
1	140505876	6877	39909
1	140526344	6878	39591
1	140546610	6879	39644
1	140566896	6880	39114
1	140587292	6881	40121
1	140607593	6882	39008
1	140627714	6883	38902
1	140648037	6884	39909
1	140668267	6885	38796
1	140688754	6886	40068
1	140708836	6887	38690
1	140728953	6888	39220
1	140749275	6889	40121
1	140769486	6890	38266
1	140789998	6891	40492
1	140810206	6892	38902
1	140830514	6893	39114
1	140851030	6894	39750
1	140871182	6895	39644
1	140891638	6896	40015
1	140911768	6897	38743
1	140932222	6898	39697
1	140952480	6899	39697
1	140972685	6900	38478
1	140993066	6901	40015
1	141013505	6902	39909
1	141033663	6903	39273
1	141053961	6904	38849
1	141074478	6905	39644
1	141094567	6906	39273
1	141115056	6907	40015
1	141135156	6908	38796
1	141155480	6909	39644
1	141175842	6910	39220
1	141196037	6911	39750
1	141216462	6912	39167
1	141236690	6913	39644
1	141257146	6914	39591
1	141277816	6915	40174
1	141297848	6916	38849
1	141318207	6917	39856
1	141338984	6918	40227
1	141359434	6919	39750
1	141379743	6920	39220
1	141400048	6921	39485
1	141420424	6922	39220
1	141440585	6923	39379
1	141460809	6924	38849
1	141481128	6925	39750
1	141501419	6926	39432
1	141521899	6927	39750
1	141542037	6928	38849
1	141562430	6929	39803
1	141583140	6930	40121
1	141603468	6931	39697
1	141623689	6932	39220
1	141643819	6933	39326
1	141664104	6934	39061
1	141684696	6935	40121
1	141704908	6936	39326
1	141725207	6937	39432
1	141745512	6938	39220
1	141765869	6939	39644
1	141786200	6940	39432
1	141806410	6941	39008
1	141826626	6942	39167
1	141846963	6943	39432
1	141867186	6944	39379
1	141887448	6945	39909
1	141907791	6946	39538
1	141928216	6947	39379
1	141948628	6948	39750
1	141968937	6949	39485
1	141989402	6950	39326
1	142009520	6951	38849
1	142029994	6952	40174
1	142050330	6953	39379
1	142070732	6954	39379
1	142091089	6955	40015
1	142111246	6956	38584
1	142131563	6957	39591
1	142151986	6958	39909
1	142172510	6959	39856
1	142192702	6960	39273
1	142212815	6961	38690
1	142233299	6962	39962
1	142253608	6963	39326
1	142274023	6964	39644
1	142294320	6965	39803
1	142314585	6966	38743
1	142334783	6967	39644
1	142355243	6968	39803
1	142375685	6969	39379
1	142395945	6970	39538
1	142416169	6971	39061
1	142436471	6972	39697
1	142456728	6973	38531
1	142476895	6974	39485
1	142497379	6975	39962
1	142517833	6976	39750
1	142537922	6977	39167
1	142558440	6978	39538
1	142578566	6979	39167
1	142598939	6980	39750
1	142619250	6981	38955
1	142639574	6982	39750
1	142659981	6983	39432
1	142680478	6984	40492
1	142700742	6985	39379
1	142720962	6986	38372
1	142741419	6987	40121
1	142761639	6988	38902
1	142782134	6989	39962
1	142802313	6990	39273
1	142822744	6991	39432
1	142842994	6992	39379
1	142863251	6993	39485
1	142883589	6994	39379
1	142903865	6995	39485
1	142924222	6996	39326
1	142944234	6997	38902
1	142964401	6998	39379
1	142985001	6999	40227
1	143005251	7000	39432
1	143025524	7001	38955
1	143045719	7002	39485
1	143066109	7003	39273
1	143086402	7004	39485
1	143106672	7005	38902
1	143127243	7006	40492
1	143147419	7007	39008
1	143167747	7008	39538
1	143188219	7009	39803
1	143208581	7010	39538
1	143229269	7011	40227
1	143249486	7012	39432
1	143269775	7013	39008
1	143290008	7014	39273
1	143310399	7015	39750
1	143330838	7016	39220
1	143351073	7017	40121
1	143371495	7018	39061
1	143391629	7019	39591
1	143412154	7020	39697
1	143432168	7021	38796
1	143452642	7022	39644
1	143472793	7023	38849
1	143493447	7024	40439
1	143513688	7025	39008
1	143533878	7026	39379
1	143553936	7027	39220
1	143574354	7028	39379
1	143594439	7029	38902
1	143614783	7030	39856
1	143635156	7031	39061
1	143655499	7032	40068
1	143675809	7033	39273
1	143696114	7034	39167
1	143716531	7035	39697
1	143736703	7036	39273
1	143756949	7037	39326
1	143777142	7038	39273
1	143797621	7039	39591
1	143818074	7040	39909
1	143838248	7041	39167
1	143858860	7042	40068
1	143879028	7043	38955
1	143899590	7044	39803
1	143919883	7045	39379
1	143940182	7046	39803
1	143960575	7047	39697
1	143980717	7048	38690
1	144001243	7049	39909
1	144021373	7050	39326
1	144041772	7051	39432
1	144062107	7052	39326
1	144082437	7053	39697
1	144102729	7054	39326
1	144123242	7055	39856
1	144143620	7056	39644
1	144163903	7057	39379
1	144184097	7058	39220
1	144204567	7059	39538
1	144224945	7060	39432
1	144245286	7061	40121
1	144265563	7062	38796
1	144286140	7063	40068
1	144306165	7064	39114
1	144326719	7065	39644
1	144346970	7066	39591
1	144367321	7067	39697
1	144387610	7068	38796
1	144408194	7069	40439
1	144428531	7070	39485
1	144448853	7071	39326
1	144469330	7072	39962
1	144489638	7073	39061
1	144510052	7074	39644
1	144530233	7075	39485
1	144550515	7076	38902
1	144571121	7077	39909
1	144591244	7078	39326
1	144611724	7079	39538
1	144632283	7080	40068
1	144652632	7081	39485
1	144672904	7082	39856
1	144693225	7083	39379
1	144713816	7084	40333
1	144733809	7085	38319
1	144754364	7086	39326
1	144774644	7087	39909
1	144795176	7088	40174
1	144815507	7089	39273
1	144835718	7090	39220
1	144856270	7091	39909
1	144876576	7092	39220
1	144896935	7093	39909
1	144917199	7094	39008
1	144937365	7095	39485
1	144957735	7096	39591
1	144978154	7097	39432
1	144998535	7098	39750
1	145018757	7099	38637
1	145039310	7100	40704
1	145059585	7101	39114
1	145079873	7102	38902
1	145100291	7103	40015
1	145120519	7104	39220
1	145141104	7105	40121
1	145161650	7106	39803
1	145182001	7107	39114
1	145202149	7108	39432
1	145222464	7109	39803
1	145242788	7110	38955
1	145263140	7111	39273
1	145283209	7112	39326
1	145303663	7113	39273
1	145324155	7114	40174
1	145344312	7115	39379
1	145364624	7116	39220
1	145385159	7117	40280
1	145405424	7118	39061
1	145425913	7119	39538
1	145446371	7120	39856
1	145466615	7121	39008
1	145487032	7122	39803
1	145507311	7123	39326
1	145527587	7124	39909
1	145547847	7125	38849
1	145568139	7126	39538
1	145588474	7127	39326
1	145608501	7128	38796
1	145629014	7129	40068
1	145649274	7130	39114
1	145669595	7131	39644
1	145689882	7132	39061
1	145710184	7133	39856
1	145730641	7134	39379
1	145751030	7135	39962
1	145771127	7136	38690
1	145791626	7137	40174
1	145811815	7138	39114
1	145831877	7139	38743
1	145852174	7140	39697
1	145872285	7141	38796
1	145892442	7142	39167