version 2
run QLearnCC-3-20100908-05:17:18-2372
attr configname QLearnCC
attr datetime 20100908-05:17:18
attr experiment QLearnCC
attr inifile D:/Developement/Oversim2/multic/simulations/omnetpp.ini
attr iterationvars $mpeers=100
attr iterationvars2 "$mpeers=100, $repetition=0"
attr measurement $mpeers=100
attr mpeers 100
attr network oversim.underlay.simpleunderlay.SimpleUnderlayNetwork
attr processid 2372
attr repetition 0
attr replication #0
attr resultdir results
attr runnumber 3
attr seedset 3

vector 1  SimpleUnderlayNetwork.globalObserver.globalStatistics  incoming_bytes  ETV
vector 2  SimpleUnderlayNetwork.globalObserver.globalStatistics  drops  ETV
vector 3  SimpleUnderlayNetwork.globalObserver.globalStatistics  delayed_acks  ETV
vector 4  SimpleUnderlayNetwork.globalObserver.globalStatistics  timetotimeouts  ETV
vector 5  SimpleUnderlayNetwork.globalObserver.globalStatistics  9rateOf1To0  ETV
vector 6  SimpleUnderlayNetwork.globalObserver.globalStatistics  max9RateOf1To0  ETV
vector 7  SimpleUnderlayNetwork.globalObserver.globalStatistics  9rateOf1To1  ETV
vector 8  SimpleUnderlayNetwork.globalObserver.globalStatistics  max9RateOf1To1  ETV
vector 9  SimpleUnderlayNetwork.globalObserver.globalStatistics  9rateOf1To2  ETV
vector 10  SimpleUnderlayNetwork.globalObserver.globalStatistics  max9RateOf1To2  ETV
vector 11  SimpleUnderlayNetwork.globalObserver.globalStatistics  9rateOf1To3  ETV
vector 12  SimpleUnderlayNetwork.globalObserver.globalStatistics  max9RateOf1To3  ETV
vector 13  SimpleUnderlayNetwork.globalObserver.globalStatistics  9rateOf1To4  ETV
vector 14  SimpleUnderlayNetwork.globalObserver.globalStatistics  max9RateOf1To4  ETV
vector 15  SimpleUnderlayNetwork.globalObserver.globalStatistics  9rateOf1To5  ETV
vector 16  SimpleUnderlayNetwork.globalObserver.globalStatistics  max9RateOf1To5  ETV
vector 17  SimpleUnderlayNetwork.globalObserver.globalStatistics  9rateOf1To6  ETV
vector 18  SimpleUnderlayNetwork.globalObserver.globalStatistics  max9RateOf1To6  ETV
vector 19  SimpleUnderlayNetwork.globalObserver.globalStatistics  9rateOf1To7  ETV
vector 20  SimpleUnderlayNetwork.globalObserver.globalStatistics  max9RateOf1To7  ETV
vector 21  SimpleUnderlayNetwork.globalObserver.globalStatistics  9rateOf1To8  ETV
vector 22  SimpleUnderlayNetwork.globalObserver.globalStatistics  max9RateOf1To8  ETV
vector 23  SimpleUnderlayNetwork.globalObserver.globalStatistics  9rateOf1To9  ETV
vector 24  SimpleUnderlayNetwork.globalObserver.globalStatistics  max9RateOf1To9  ETV
vector 25  SimpleUnderlayNetwork.globalObserver.globalStatistics  1rate  ETV
vector 26  SimpleUnderlayNetwork.globalObserver.globalStatistics  max2Rate  ETV
vector 27  SimpleUnderlayNetwork.globalObserver.globalStatistics  "GlobalNodeList: Number of nodes"  ETV
vector 28  SimpleUnderlayNetwork.globalObserver.globalStatistics  "GlobalNodeList: Number of bootstrapped malicious nodes"  ETV
1	1396678321	6098	416315
1	1396910513	6099	420714
1	1397142478	6100	414937
1	1397374545	6101	419548
1	1397606381	6102	418700
1	1397839194	6103	421509
1	1398071444	6104	418329
1	1398303181	6105	419760
1	1398535869	6106	419972
1	1398767371	6107	416845
1	1398998730	6108	415679
1	1399231715	6109	422940
1	1399464139	6110	419548
1	1399695059	6111	416474
1	1399927891	6112	421668
1	1400160851	6113	419177
1	1400392014	6114	417110
1	1400624497	6115	419495
1	1400855644	6116	416156
1	1401087830	6117	419654
1	1401320895	6118	421562
1	1401552079	6119	415891
1	1401784652	6120	419336
1	1402017473	6121	422675
1	1402249720	6122	419336
1	1402481478	6123	418276
1	1402714349	6124	419177
1	1402945823	6125	419601
1	1403178295	6126	418806
1	1403411364	6127	421562
1	1403642171	6128	414778
1	1403874327	6129	416156
1	1404105804	6130	419389
1	1404338861	6131	423523
1	1404570434	6132	417110
1	1404803206	6133	421933
1	1405035161	6134	419283
1	1405267421	6135	418488
1	1405500466	6136	421721
1	1405731608	6137	417746
1	1405962973	6138	415414
1	1406194508	6139	418753
1	1406426482	6140	419760
1	1406659701	6141	420608
1	1406890814	6142	415891
1	1407123215	6143	420926
1	1407355291	6144	418965
1	1407587702	6145	417693
1	1407818843	6146	418594
1	1408050799	6147	417852
1	1408282577	6148	418700
1	1408515306	6149	420608
1	1408748125	6150	422039
1	1408979069	6151	413506
1	1409212400	6152	425537
1	1409443939	6153	417746
1	1409676125	6154	418488
1	1409907447	6155	415467
1	1410139349	6156	420025
1	1410371591	6157	419230
1	1410604093	6158	419177
1	1410836148	6159	421774
1	1411067784	6160	418329
1	1411299465	6161	418806
1	1411531210	6162	416845
1	1411764303	6163	420343
1	1411994960	6164	417375
1	1412226603	6165	419548
1	1412459457	6166	418276
1	1412691047	6167	420555
1	1412923324	6168	418859
1	1413154924	6169	416845
1	1413387286	6170	421986
1	1413618660	6171	416209
1	1413851012	6172	422410
1	1414083596	6173	418329
1	1414314841	6174	414778
1	1414547040	6175	422357
1	1414778077	6176	415944
1	1415010753	6177	421615
1	1415243237	6178	421191
1	1415475512	6179	418170
1	1415706567	6180	416156
1	1415938403	6181	419018
1	1416170760	6182	417481
1	1416401850	6183	419495
1	1416633528	6184	416527
1	1416865707	6185	418435
1	1417098665	6186	422092
1	1417331352	6187	421721
1	1417563344	6188	416739
1	1417795122	6189	417746
1	1418028326	6190	423735
1	1418260214	6191	419654
1	1418491569	6192	415679
1	1418724038	6193	420767
1	1418956464	6194	421827
1	1419189156	6195	418700
1	1419420628	6196	418753
1	1419651462	6197	417534
1	1419884466	6198	420131
1	1420116353	6199	417163
1	1420348359	6200	420184
1	1420580269	6201	418488
1	1420812147	6202	420237
1	1421044386	6203	420078
1	1421276234	6204	418965
1	1421508451	6205	417958
1	1421739594	6206	415944
1	1421970609	6207	418117
1	1422201791	6208	416103
1	1422434832	6209	422357
1	1422666237	6210	417534
1	1422898810	6211	421138
1	1423130907	6212	418011
1	1423362008	6213	416421
1	1423594189	6214	419336
1	1423827047	6215	421350
1	1424057954	6216	418064
1	1424290487	6217	419601
1	1424522776	6218	418859
1	1424755165	6219	421509
1	1424986771	6220	417110
1	1425218287	6221	417693
1	1425449980	6222	418806
1	1425682749	6223	421138
1	1425914942	6224	417110
1	1426146718	6225	418753
1	1426378954	6226	420820
1	1426611349	6227	418806
1	1426842923	6228	416262
1	1427075421	6229	420290
1	1427306464	6230	418806
1	1427539407	6231	419760
1	1427770795	6232	416580
1	1428002313	6233	419071
1	1428234805	6234	419283
1	1428467045	6235	421191
1	1428698267	6236	416845
1	1428930506	6237	422675
1	1429162353	6238	416898
1	1429395545	6239	424053
1	1429627260	6240	417269
1	1429859391	6241	420873
1	1430091350	6242	419813
1	1430323441	6243	419495
1	1430556103	6244	421191
1	1430787833	6245	418382
1	1431019768	6246	418647
1	1431252034	6247	418488
1	1431483545	6248	418912
1	1431716843	6249	422463
1	1431948100	6250	418276
1	1432180162	6251	419071
1	1432411977	6252	419813
1	1432643998	6253	417640
1	1432874805	6254	415838
1	1433107712	6255	419601
1	1433338693	6256	417110
1	1433571282	6257	419707
1	1433803935	6258	422463
1	1434035178	6259	416421
1	1434268076	6260	422675
1	1434500601	6261	417693
1	1434732490	6262	419866
1	1434964051	6263	418753
1	1435194780	6264	414036
1	1435426832	6265	418011
1	1435658954	6266	418064
1	1435890144	6267	417110
1	1436121792	6268	419972
1	1436354042	6269	417534
1	1436588344	6270	426067
1	1436819174	6271	413241
1	1437051111	6272	420237
1	1437282121	6273	415997
1	1437513482	6274	417428
1	1437745832	6275	419707
1	1437979173	6276	422410
1	1438209725	6277	415467
1	1438441853	6278	420926
1	1438674660	6279	420396
1	1438906144	6280	416739
1	1439138467	6281	419230
1	1439370012	6282	419813
1	1439602312	6283	417534
1	1439833770	6284	422039
1	1440066442	6285	417693
1	1440298767	6286	418753
1	1440529898	6287	419389
1	1440761731	6288	418223
1	1440995532	6289	426067
1	1441228355	6290	418647
1	1441458627	6291	417534
1	1441691445	6292	419813
1	1441924027	6293	420078
1	1442155745	6294	417428
1	1442387576	6295	418329
1	1442619590	6296	418223
1	1442851768	6297	422039
1	1443083757	6298	418647
1	1443314374	6299	411015
1	1443545547	6300	418223
1	1443777870	6301	418700
1	1444009814	6302	415891
1	1444241123	6303	421244
1	1444474244	6304	420767
1	1444705073	6305	415467
1	1444937427	6306	419654
1	1445168519	6307	417799
1	1445401217	6308	418329
1	1445632984	6309	419071
1	1445864884	6310	419230
1	1446095938	6311	416156
1	1446327410	6312	417481
1	1446560407	6313	421615
1	1446791388	6314	415043
1	1447023314	6315	419813
1	1447255562	6316	418753
1	1447487144	6317	419389
1	1447718755	6318	418647
1	1447951570	6319	421562
1	1448182369	6320	415096
1	1448413381	6321	416368
1	1448645839	6322	418594
1	1448878593	6323	422569
1	1449110160	6324	417322
1	1449341791	6325	417004
1	1449574180	6326	418965
1	1449805607	6327	418541
1	1450037394	6328	417852
1	1450270023	6329	421721
1	1450502164	6330	420184
1	1450733144	6331	415255
1	1450965094	6332	419442
1	1451198534	6333	423364
1	1451428598	6334	412711
1	1451661182	6335	422304
1	1451893630	6336	420078
1	1452125153	6337	416527
1	1452356210	6338	418117
1	1452587882	6339	416845
1	1452819859	6340	419813
1	1453051334	6341	416951
1	1453283006	6342	417958
1	1453513946	6343	414142
1	1453745431	6344	418700
1	1453977928	6345	418806
1	1454209326	6346	418170
1	1454439111	6347	412764
1	1454671140	6348	419707
1	1454901972	6349	417110
1	1455135629	6350	424636
1	1455366603	6351	414725
1	1455598383	6352	418435
1	1455830904	6353	420343
1	1456062660	6354	418647
1	1456294773	6355	419442
1	1456526265	6356	418912
1	1456758040	6357	416209
1	1456989334	6358	416315
1	1457221119	6359	417322
1	1457451740	6360	417375
1	1457684296	6361	421085
1	1457915926	6362	419177
1	1458147984	6363	417216
1	1458379839	6364	420873
1	1458612088	6365	420502
1	1458842832	6366	414036
1	1459074937	6367	417958
1	1459305906	6368	416103
1	1459538021	6369	421509
1	1459770118	6370	415785
1	1460001883	6371	418806
1	1460232880	6372	415944
1	1460464971	6373	421138
1	1460697365	6374	418276
1	1460928689	6375	418170
1	1461161504	6376	419336
1	1461393587	6377	418541
1	1461625377	6378	418329
1	1461856743	6379	417322
1	1462088502	6380	417958
1	1462320548	6381	418753
1	1462552843	6382	420396
1	1462784040	6383	415997
1	1463016085	6384	422516
1	1463248529	6385	416686
1	1463479784	6386	417640
1	1463712282	6387	417269
1	1463942915	6388	418541
1	1464175398	6389	419177
1	1464406529	6390	414619
1	1464639294	6391	423099
1	1464869689	6392	414619
1	1465103118	6393	423046
1	1465334442	6394	418541
1	1465566311	6395	417746
1	1465797439	6396	417269
1	1466029602	6397	419071
1	1466261553	6398	419124
1	1466493736	6399	418170
1	1466725790	6400	420449
1	1466956992	6401	416898
1	1467188991	6402	417746
1	1467419352	6403	415838
1	1467652669	6404	422569
1	1467883658	6405	418965
1	1468115700	6406	417057
1	1468346662	6407	416792
1	1468577698	6408	415626
1	1468810322	6409	420131
1	1469041597	6410	417534
1	1469273949	6411	417428
1	1469504530	6412	418117
1	1469735830	6413	414619
1	1469967642	6414	418170
1	1470198507	6415	418329
1	1470430373	6416	416633
1	1470661532	6417	417269
1	1470893563	6418	421244
1	1471124561	6419	414142
1	1471355798	6420	416951
1	1471588156	6421	418647
1	1471818840	6422	415043
1	1472050502	6423	420184
1	1472282144	6424	417269
1	1472514342	6425	418594
1	1472745711	6426	417958
1	1472976210	6427	415520
1	1473208976	6428	420873
1	1473441999	6429	424689
1	1473672820	6430	413241
1	1473905299	6431	419601
1	1474136271	6432	414672
1	1474366731	6433	417428
1	1474598908	6434	417004
1	1474831056	6435	422781
1	1475062476	6436	415626
1	1475293810	6437	419442
1	1475526263	6438	417110
1	1475757131	6439	420290
1	1475989318	6440	417163
1	1476220606	6441	416050
1	1476451827	6442	418064
1	1476684335	6443	420025
1	1476915083	6444	415997
1	1477146845	6445	418117
1	1477378576	6446	416580
1	1477609357	6447	417004
1	1477840895	6448	418488
1	1478072496	6449	417322
1	1478303895	6450	419336
1	1478534985	6451	417905
1	1478766225	6452	414195
1	1478998775	6453	422304
1	1479229360	6454	414990
1	1479461513	6455	419071
1	1479692294	6456	415838
1	1479924155	6457	420025
1	1480156424	6458	419972
1	1480388908	6459	420661
1	1480619908	6460	415096
1	1480851276	6461	416209
1	1481083027	6462	418382
1	1481314207	6463	416633
1	1481545447	6464	416633
1	1481777167	6465	416050
1	1482009510	6466	421668
1	1482240077	6467	416421
1	1482473197	6468	419177
1	1482704007	6469	416527
1	1482934857	6470	416103
1	1483166576	6471	418965
1	1483396640	6472	410803
1	1483628320	6473	421456
1	1483859032	6474	412287
1	1484090812	6475	419177
1	1484322388	6476	417693
1	1484553474	6477	415944
1	1484785306	6478	419707
1	1485016499	6479	416845
1	1485248839	6480	419548
1	1485480115	6481	415997
1	1485711610	6482	419495
1	1485942616	6483	417375
1	1486173899	6484	414884
1	1486406166	6485	419919
1	1486636981	6486	412923
1	1486867519	6487	416739
1	1487098432	6488	414407
1	1487330290	6489	417216
1	1487562034	6490	417746
1	1487793032	6491	416474
1	1488024198	6492	414672
1	1488255191	6493	417375
1	1488487323	6494	420290
1	1488717612	6495	412976
1	1488949705	6496	419495
1	1489181040	6497	416315
1	1489412267	6498	417799
1	1489643668	6499	415255
1	1489875353	6500	417587
1	1490105344	6501	410697
1	1490337001	6502	417587
1	1490568035	6503	416421
1	1490798147	6504	415838
1	1491030672	6505	418700
1	1491262434	6506	418700
1	1491493594	6507	414937
1	1491725277	6508	416845
1	1491956845	6509	418647
1	1492187830	6510	415626
1	1492419786	6511	419495
1	1492650284	6512	413824
1	1492882320	6513	419866
1	1493113896	6514	416580
1	1493345910	6515	419495
1	1493576694	6516	414990
1	1493808373	6517	419230
1	1494040631	6518	419124
1	1494271326	6519	414195
1	1494502595	6520	416739
1	1494734118	6521	416315
1	1494965726	6522	417534
1	1495196883	6523	415573
1	1495428219	6524	417746
1	1495660300	6525	420290
1	1495890576	6526	411174
1	1496121393	6527	414672
1	1496352578	6528	417322
1	1496584074	6529	420714
1	1496815970	6530	416474
1	1497047362	6531	416474
1	1497279171	6532	418806
1	1497510138	6533	414089
1	1497742958	6534	421615
1	1497974107	6535	415732
1	1498204729	6536	417746
1	1498436329	6537	415096
1	1498668266	6538	421721
1	1498900442	6539	417057
1	1499131522	6540	417481
1	1499365185	6541	423947
1	1499596226	6542	415414
1	1499827978	6543	417163
1	1500059279	6544	417958
1	1500290868	6545	415255
1	1500521391	6546	414937
1	1500753674	6547	418700
1	1500984915	6548	416580
1	1501215819	6549	415944
1	1501447788	6550	418965
1	1501678940	6551	413029
1	1501909455	6552	416739
1	1502141651	6553	418859
1	1502371899	6554	415520
1	1502604214	6555	418117
1	1502836002	6556	418594
1	1503067602	6557	417587
1	1503298382	6558	415891
1	1503530435	6559	417640
1	1503761797	6560	415255
1	1503992061	6561	417534
1	1504223682	6562	416633
1	1504455896	6563	417322
1	1504687585	6564	416580
1	1504918565	6565	418912
1	1505151078	6566	417905
1	1505380780	6567	412817
1	1505612481	6568	418594
1	1505844295	6569	417534
1	1506076292	6570	418329
1	1506306424	6571	415149
1	1506538490	6572	417905
1	1506770047	6573	420078
1	1507002203	6574	417216
1	1507233255	6575	416421
1	1507464488	6576	415414
1	1507696097	6577	420078
1	1507926863	6578	412870
1	1508159037	6579	420078
1	1508390576	6580	416527
1	1508622737	6581	421721
1	1508853563	6582	414937
1	1509085267	6583	417057
1	1509316728	6584	417057
1	1509548940	6585	417852
1	1509780548	6586	418594
1	1510012670	6587	418647
1	1510243933	6588	416686
1	1510476020	6589	419919
1	1510707764	6590	418859
1	1510938382	6591	413188
1	1511171210	6592	419972
1	1511401198	6593	413877
1	1511633419	6594	419336
1	1511864650	6595	416103
1	1512095916	6596	418647
1	1512326505	6597	413135
1	1512559812	6598	421456
1	1512789561	6599	412658
1	1513021319	6600	420343
1	1513253249	6601	416421
1	1513484670	6602	416209
1	1513716180	6603	420502
1	1513947474	6604	413718
1	1514179175	6605	421297
1	1514410078	6606	413294
1	1514642143	6607	418011
1	1514873856	6608	418170
1	1515105092	6609	416209
1	1515336199	6610	417481
1	1515567909	6611	416209
1	1515799040	6612	415732
1	1516030408	6613	417746
1	1516262584	6614	422198
1	1516493199	6615	411492
1	1516725100	6616	420820
1	1516956035	6617	413877
1	1517187740	6618	420290
1	1517419820	6619	417799
1	1517650960	6620	417534
1	1517882062	6621	415732
1	1518112575	6622	414884
1	1518344587	6623	419018
1	1518574992	6624	412711
1	1518807674	6625	421986
1	1519038203	6626	415573
1	1519269922	6627	415785
1	1519501792	6628	419230
1	1519732182	6629	415043
1	1519964901	6630	420025
1	1520195962	6631	415361
1	1520426259	6632	415891
1	1520657787	6633	417534
1	1520889018	6634	414089
1	1521120901	6635	420449
1	1521351369	6636	413983
1	1521583750	6637	418753
1	1521815520	6638	418700
1	1522045884	6639	416368
1	1522277736	6640	418011
1	1522509452	6641	418700
1	1522740910	6642	415308
1	1522971619	6643	415467
1	1523202859	6644	419230
1	1523434073	6645	414460
1	1523664694	6646	415255
1	1523896097	6647	417746
1	1524127157	6648	415308
1	1524357935	6649	416368
1	1524589494	6650	417693
1	1524820739	6651	417110
1	1525051670	6652	415202
1	1525283631	6653	418647
1	1525513600	6654	413029
1	1525746484	6655	423099
1	1525976834	6656	411863
1	1526209520	6657	423099
1	1526439365	6658	414407
1	1526671179	6659	417375
1	1526902858	6660	418382
1	1527134500	6661	417110
1	1527365800	6662	419654
1	1527596722	6663	415202
1	1527827210	6664	413983
1	1528058805	6665	418912
1	1528290638	6666	419548
1	1528521722	6667	413983
1	1528752721	6668	418488
1	1528983758	6669	417693
1	1529215542	6670	416633
1	1529446728	6671	418170
1	1529678697	6672	418064
1	1529909238	6673	414831
1	1530141520	6674	419972
1	1530372175	6675	415785
1	1530605400	6676	421562
1	1530835767	6677	414036
1	1531067123	6678	419442
1	1531299278	6679	418329
1	1531530511	6680	418170
1	1531762401	6681	417587
1	1531992863	6682	413612
1	1532223838	6683	417958
1	1532455722	6684	419654
1	1532687231	6685	417057
1	1532918414	6686	417216
1	1533148763	6687	413824
1	1533381079	6688	419760
1	1533612857	6689	420078
1	1533846103	6690	425431
1	1534077318	6691	414460
1	1534308235	6692	413612
1	1534538853	6693	416315
1	1534770760	6694	419548
1	1535001843	6695	416527
1	1535232691	6696	414672
1	1535463766	6697	416156
1	1535695695	6698	417269
1	1535926878	6699	418064
1	1536157049	6700	414619
1	1536389047	6701	418806
1	1536620130	6702	415732
1	1536852246	6703	420396
1	1537082990	6704	414513
1	1537314943	6705	420820
1	1537546335	6706	414831
1	1537777810	6707	419601
1	1538008594	6708	416209
1	1538240137	6709	418912
1	1538471277	6710	415520
1	1538703309	6711	420608
1	1538933395	6712	412446
1	1539165723	6713	420449
1	1539396905	6714	415467
1	1539626821	6715	415732
1	1539857770	6716	414778
1	1540090087	6717	421191
1	1540321473	6718	419389
1	1540552030	6719	414778
1	1540784366	6720	420078
1	1541015255	6721	417799
1	1541246266	6722	418541
1	1541478248	6723	417004
1	1541709998	6724	419813
1	1541940670	6725	418276
1	1542171782	6726	412022
1	1542403737	6727	422039
1	1542634699	6728	416527
1	1542864115	6729	412181
1	1543095658	6730	416951
1	1543327646	6731	420131
1	1543558881	6732	418117
1	1543790333	6733	418753
1	1544020951	6734	415361
1	1544252449	6735	418965
1	1544484193	6736	419548
1	1544714899	6737	414036
1	1544945291	6738	416951
1	1545178898	6739	423841
1	1545409725	6740	416792
1	1545641313	6741	418382
1	1545871823	6742	413877
1	1546102351	6743	415997
1	1546334811	6744	420131
1	1546566167	6745	418276
1	1546797308	6746	415308
1	1547028408	6747	417693
1	1547259781	6748	418700
1	1547491655	6749	420873
1	1547722249	6750	414990
1	1547953036	6751	413771
1	1548183875	6752	417481
1	1548416258	6753	421403
1	1548647248	6754	418541
1	1548878357	6755	415149
1	1549109961	6756	417640
1	1549341835	6757	419018
1	1549572554	6758	414725
1	1549803999	6759	418965
1	1550034397	6760	413771
1	1550265961	6761	418170
1	1550496829	6762	417216
1	1550727187	6763	416209
1	1550958298	6764	414195
1	1551188861	6765	418064
1	1551420197	6766	417958
1	1551652172	6767	419389
1	1551883179	6768	416474
1	1552115547	6769	418541
1	1552344377	6770	411969
1	1552575676	6771	417640
1	1552807262	6772	419442
1	1553037805	6773	414248
1	1553268979	6774	418170
1	1553499049	6775	414407
1	1553729817	6776	417640
1	1553962494	6777	419760
1	1554193119	6778	417428
1	1554424392	6779	417110
1	1554655532	6780	416368
1	1554886920	6781	419071
1	1555117984	6782	416898
1	1555348540	6783	415785
1	1555580791	6784	422198
1	1555812031	6785	416686
1	1556043503	6786	418700
1	1556274452	6787	416898
1	1556505580	6788	415891
1	1556736613	6789	418223
1	1556967616	6790	416209
1	1557199271	6791	419389
1	1557430882	6792	418435
1	1557661741	6793	417375
1	1557892591	6794	413930
1	1558123646	6795	418594
1	1558355112	6796	419601
1	1558585978	6797	413241
1	1558817522	6798	417110
1	1559048350	6799	418700
1	1559280001	6800	417640
1	1559511358	6801	419230
1	1559742674	6802	416580
1	1559974096	6803	417958
1	1560204761	6804	417375
1	1560436854	6805	420237
1	1560667361	6806	413930
1	1560898307	6807	418064
1	1561130600	6808	420025
1	1561360856	6809	416368
1	1561591698	6810	415414
1	1561822400	6811	415361
1	1562054865	6812	421509
1	1562286795	6813	419919
1	1562517789	6814	415149
1	1562748979	6815	418064
1	1562981049	6816	420767
1	1563212049	6817	416686
1	1563443374	6818	416580
1	1563673223	6819	414407
1	1563904216	6820	417163
1	1564136320	6821	422622
1	1564366915	6822	413082
1	1564598503	6823	418700
1	1564828565	6824	413718
1	1565060599	6825	420555
1	1565290891	6826	414884
1	1565521885	6827	416633
1	1565753110	6828	417958
1	1565984244	6829	415891
1	1566214933	6830	415891
1	1566446421	6831	419071
1	1566677092	6832	414619
1	1566907683	6833	418011
1	1567139675	6834	419919
1	1567370647	6835	416103
1	1567602623	6836	422569
1	1567833656	6837	414619
1	1568065533	6838	419283
1	1568296359	6839	415573
1	1568528264	6840	418912
1	1568759474	6841	420396
1	1568990974	6842	416209
1	1569223097	6843	419124
1	1569454026	6844	417428
1	1569685194	6845	416633
1	1569916391	6846	417216
1	1570146636	6847	413400
1	1570378108	6848	421403
1	1570609438	6849	415838
1	1570842101	6850	421615
1	1571073160	6851	417269
1	1571304278	6852	415202
1	1571536707	6853	423576
1	1571766557	6854	412658
1	1571998444	6855	419283
1	1572230098	6856	416686
1	1572461216	6857	418541
1	1572693067	6858	420767
1	1572925094	6859	419707
1	1573156628	6860	418541
1	1573387931	6861	416686
1	1573619364	6862	416686
1	1573849779	6863	414248
1	1574082512	6864	421721
1	1574313266	6865	417852
1	1574545161	6866	419760
1	1574777212	6867	418647
1	1575008471	6868	416845
1	1575240429	6869	418170
1	1575472106	6870	419018
1	1575703533	6871	419972
1	1575933768	6872	415361
1	1576165622	6873	415520
1	1576396947	6874	420608
1	1576628380	6875	415785
1	1576859596	6876	419548
1	1577090533	6877	415202
1	1577322087	6878	417004
1	1577553584	6879	421350
1	1577784221	6880	413029
1	1578015660	6881	419177
1	1578247191	6882	416580
1	1578478492	6883	418488
1	1578710591	6884	419601
1	1578941172	6885	416103
1	1579172577	6886	417587
1	1579404470	6887	420555
1	1579635318	6888	418276
1	1579866484	6889	414990
1	1580098750	6890	418700
1	1580329058	6891	415096
1	1580560063	6892	417905
1	1580791319	6893	417587
1	1581022761	6894	418806
1	1581254176	6895	417693
1	1581485653	6896	416792
1	1581717054	6897	419601
1	1581948837	6898	419124
1	1582180589	6899	418170
1	1582412218	6900	418011
1	1582643027	6901	417587
1	1582874579	6902	416103
1	1583105629	6903	417428
1	1583338067	6904	422145
1	1583568314	6905	414513
1	1583800173	6906	417640
1	1584031372	6907	417428
1	1584261446	6908	413400
1	1584494283	6909	424583
1	1584724358	6910	412128
1	1584955440	6911	419071
1	1585186811	6912	416209
1	1585417475	6913	417004
1	1585648759	6914	418276
1	1585879888	6915	414778
1	1586110950	6916	419760
1	1586342839	6917	418276
1	1586574706	6918	419389
1	1586807243	6919	421456
1	1587037828	6920	415255
1	1587268324	6921	417587
1	1587499357	6922	415573
1	1587731626	6923	423152
1	1587963199	6924	417004
1	1588193819	6925	416103
1	1588425428	6926	418594
1	1588657081	6927	417110
1	1588888354	6928	417481
1	1589120117	6929	418753
1	1589351046	6930	417004
1	1589581889	6931	416739
1	1589813644	6932	421403
1	1590044061	6933	412234
1	1590275388	6934	418276
1	1590505940	6935	417375
1	1590736988	6936	412764
1	1590967865	6937	418329
1	1591199378	6938	416050
1	1591431210	6939	420025
1	1591662231	6940	416315
1	1591893629	6941	418064
1	1592124966	6942	418011
1	1592355225	6943	415255
1	1592587887	6944	421880
1	1592818807	6945	415043
1	1593049914	6946	416315
1	1593280551	6947	418541
1	1593512569	6948	419283
1	1593744579	6949	417587
1	1593974769	6950	412128
1	1594206936	6951	421880
1	1594437887	6952	416792
1	1594669754	6953	417799
1	1594900233	6954	413877
1	1595131813	6955	420131
1	1595363603	6956	418329
1	1595593490	6957	414460
1	1595826255	6958	421615
1	1596056806	6959	414831
1	1596286835	6960	414195
1	1596517977	6961	415414
1	1596749778	6962	417799
1	1596981380	6963	418435
1	1597212478	6964	417640
1	1597443044	6965	413983
1	1597674251	6966	418912
1	1597906199	6967	416103
1	1598136418	6968	416580
1	1598369393	6969	420714
1	1598599074	6970	415732
1	1598830410	6971	415520
1	1599060945	6972	417375
1	1599292529	6973	418488
1	1599523880	6974	419071
1	1599755811	6975	419601
1	1599986502	6976	415255
1	1600215973	6977	412181
1	1600447435	6978	419018
1	1600678733	6979	418859
1	1600910558	6980	418859
1	1601141992	6981	415626
1	1601372114	6982	416103
1	1601604223	6983	420396
1	1601835186	6984	415255
1	1602066533	6985	418223
1	1602297431	6986	416527
1	1602529372	6987	420343
1	1602760263	6988	414301
1	1602992438	6989	423470
1	1603223674	6990	418011
1	1603454586	6991	415467
1	1603686684	6992	419495
1	1603916575	6993	416633
1	1604148197	6994	416527
1	1604377451	6995	412711
1	1604608474	6996	418488
1	1604839913	6997	418753
1	1605072711	6998	421032
1	1605303323	6999	414619
1	1605533908	7000	417799
1	1605763776	7001	413983
1	1605994530	7002	416951
1	1606225877	7003	414990
1	1606456034	7004	416156
1	1606687530	7005	418382
1	1606918749	7006	414248
1	1607150809	7007	421509
1	1607381152	7008	415944
1	1607611986	7009	414301
1	1607843212	7010	418753
1	1608074331	7011	417587
1	1608305563	7012	417905
1	1608535722	7013	414354
1	1608767063	7014	415096
1	1608997915	7015	420555
1	1609228826	7016	414778
1	1609460960	7017	420184
1	1609691075	7018	413135
1	1609922316	7019	418753
1	1610152998	7020	417428
1	1610384326	7021	417640
1	1610614783	7022	413082
1	1610845007	7023	413029
1	1611075452	7024	416474
1	1611306979	7025	416686
1	1611536646	7026	413400
1	1611767642	7027	416898
1	1611998311	7028	417481
1	1612229912	7029	417269
1	1612460473	7030	415467
1	1612692068	7031	417587
1	1612922986	7032	419760
1	1613154908	7033	415096
1	1613384779	7034	414301
1	1613616129	7035	416368
1	1613847662	7036	420184
1	1614079146	7037	417905
1	1614309990	7038	414195
1	1614540801	7039	419866
1	1614772510	7040	416792
1	1615003319	7041	417004
1	1615233833	7042	416050
1	1615465292	7043	418700
1	1615696054	7044	415520
1	1615927664	7045	418011
1	1616159162	7046	416686
1	1616389702	7047	418117
1	1616621171	7048	417852
1	1616851998	7049	414884
1	1617082552	7050	418965
1	1617313551	7051	415202
1	1617544456	7052	415944
1	1617774699	7053	414990
1	1618005190	7054	415202
1	1618236175	7055	417322
1	1618466759	7056	415043
1	1618699039	7057	421350
1	1618929143	7058	414672
1	1619159867	7059	415573
1	1619391167	7060	419177
1	1619622360	7061	416686
1	1619853450	7062	417057
1	1620085936	7063	418117
1	1620316039	7064	417587
1	1620546820	7065	416527
1	1620778921	7066	419177
1	1621009310	7067	414036
1	1621241144	7068	419230
1	1621472339	7069	416527
1	1621703898	7070	419760
1	1621934960	7071	418223
1	1622164857	7072	413347
1	1622396423	7073	415891
1	1622626338	7074	414566
1	1622858434	7075	419071
1	1623089259	7076	419760
1	1623320524	7077	416580
1	1623550621	7078	413930
1	1623782128	7079	417958
1	1624012947	7080	417216
1	1624243523	7081	415679
1	1624474833	7082	417958
1	1624704759	7083	412393
1	1624936470	7084	421138
1	1625168103	7085	418170
1	1625397890	7086	413347
1	1625629192	7087	418223
1	1625859908	7088	415255
1	1626090926	7089	417322
1	1626322955	7090	420078
1	1626553953	7091	415202
1	1626785490	7092	418382
1	1627016695	7093	417428
1	1627247772	7094	419124
1	1627478972	7095	414142
1	1627709878	7096	417534
1	1627940512	7097	415096
1	1628170888	7098	414672
1	1628402279	7099	419707
1	1628634629	7100	419071
1	1628865479	7101	416050
1	1629096628	7102	418435
1	1629327542	7103	414672
1	1629558463	7104	417481
1	1629789884	7105	418117
1	1630020114	7106	411333
1	1630251754	7107	419336
1	1630482482	7108	418223
1	1630713173	7109	414937
1	1630944262	7110	414884
1	1631175553	7111	420237
1	1631406341	7112	413347
1	1631637981	7113	417534
1	1631868405	7114	415997
1	1632099278	7115	417905
1	1632331109	7116	417640
1	1632562994	7117	417587
1	1632793433	7118	414831
1	1633023776	7119	417269
1	1633255951	7120	419442
1	1633488029	7121	418965
1	1633719720	7122	420025
1	1633950778	7123	413771
1	1634180057	7124	411280
1	1634411783	7125	420608
1	1634642883	7126	415573
1	1634874123	7127	417905
1	1635105126	7128	416633
1	1635337107	7129	419177
1	1635567507	7130	415096
1	1635798685	7131	417852
1	1636029827	7132	418488
1	1636260740	7133	414036
1	1636493062	7134	421774
1	1636724681	7135	418117
1	1636956217	7136	416898
1	1637187672	7137	418276