version 2
run QLearnCC-2-20100908-01:38:17-528
attr configname QLearnCC
attr datetime 20100908-01:38:17
attr experiment QLearnCC
attr inifile D:/Developement/Oversim2/multic/simulations/omnetpp.ini
attr iterationvars $mpeers=50
attr iterationvars2 "$mpeers=50, $repetition=0"
attr measurement $mpeers=50
attr mpeers 50
attr network oversim.underlay.simpleunderlay.SimpleUnderlayNetwork
attr processid 528
attr repetition 0
attr replication #0
attr resultdir results
attr runnumber 2
attr seedset 2

vector 1  SimpleUnderlayNetwork.globalObserver.globalStatistics  incoming_bytes  ETV
vector 2  SimpleUnderlayNetwork.globalObserver.globalStatistics  drops  ETV
vector 3  SimpleUnderlayNetwork.globalObserver.globalStatistics  delayed_acks  ETV
vector 4  SimpleUnderlayNetwork.globalObserver.globalStatistics  timetotimeouts  ETV
vector 5  SimpleUnderlayNetwork.globalObserver.globalStatistics  9rateOf1To0  ETV
vector 6  SimpleUnderlayNetwork.globalObserver.globalStatistics  max9RateOf1To0  ETV
vector 7  SimpleUnderlayNetwork.globalObserver.globalStatistics  9rateOf1To1  ETV
vector 8  SimpleUnderlayNetwork.globalObserver.globalStatistics  max9RateOf1To1  ETV
vector 9  SimpleUnderlayNetwork.globalObserver.globalStatistics  9rateOf1To2  ETV
vector 10  SimpleUnderlayNetwork.globalObserver.globalStatistics  max9RateOf1To2  ETV
vector 11  SimpleUnderlayNetwork.globalObserver.globalStatistics  9rateOf1To3  ETV
vector 12  SimpleUnderlayNetwork.globalObserver.globalStatistics  max9RateOf1To3  ETV
vector 13  SimpleUnderlayNetwork.globalObserver.globalStatistics  9rateOf1To4  ETV
vector 14  SimpleUnderlayNetwork.globalObserver.globalStatistics  max9RateOf1To4  ETV
vector 15  SimpleUnderlayNetwork.globalObserver.globalStatistics  9rateOf1To5  ETV
vector 16  SimpleUnderlayNetwork.globalObserver.globalStatistics  max9RateOf1To5  ETV
vector 17  SimpleUnderlayNetwork.globalObserver.globalStatistics  9rateOf1To6  ETV
vector 18  SimpleUnderlayNetwork.globalObserver.globalStatistics  max9RateOf1To6  ETV
vector 19  SimpleUnderlayNetwork.globalObserver.globalStatistics  9rateOf1To7  ETV
vector 20  SimpleUnderlayNetwork.globalObserver.globalStatistics  max9RateOf1To7  ETV
vector 21  SimpleUnderlayNetwork.globalObserver.globalStatistics  9rateOf1To8  ETV
vector 22  SimpleUnderlayNetwork.globalObserver.globalStatistics  max9RateOf1To8  ETV
vector 23  SimpleUnderlayNetwork.globalObserver.globalStatistics  9rateOf1To9  ETV
vector 24  SimpleUnderlayNetwork.globalObserver.globalStatistics  max9RateOf1To9  ETV
vector 25  SimpleUnderlayNetwork.globalObserver.globalStatistics  1rate  ETV
vector 26  SimpleUnderlayNetwork.globalObserver.globalStatistics  max2Rate  ETV
vector 27  SimpleUnderlayNetwork.globalObserver.globalStatistics  "GlobalNodeList: Number of nodes"  ETV
vector 28  SimpleUnderlayNetwork.globalObserver.globalStatistics  "GlobalNodeList: Number of bootstrapped malicious nodes"  ETV
1	690437085	6049	222229
1	690553235	6050	220109
1	690669880	6051	223713
1	690786612	6052	220533
1	690903091	6053	222176
1	691019335	6054	222070
1	691135826	6055	221911
1	691252413	6056	221169
1	691368559	6057	220427
1	691485433	6058	223713
1	691601937	6059	221116
1	691718326	6060	219791
1	691834334	6061	219897
1	691950583	6062	222229
1	692066941	6063	220056
1	692182682	6064	221116
1	692298271	6065	220268
1	692414150	6066	219738
1	692530165	6067	220109
1	692646566	6068	220851
1	692762670	6069	220851
1	692878870	6070	220957
1	692994907	6071	220851
1	693111091	6072	221487
1	693227482	6073	221593
1	693343484	6074	220745
1	693459564	6075	220374
1	693575881	6076	221010
1	693692579	6077	222282
1	693808961	6078	222335
1	693925111	6079	220480
1	694041436	6080	222176
1	694157881	6081	221275
1	694273760	6082	220109
1	694390523	6083	223395
1	694506356	6084	220162
1	694622537	6085	221540
1	694738663	6086	222388
1	694855008	6087	219208
1	694970367	6088	219844
1	695086578	6089	221752
1	695202545	6090	220586
1	695318871	6091	221487
1	695435179	6092	221540
1	695551647	6093	222282
1	695668480	6094	222547
1	695785031	6095	221805
1	695901226	6096	221063
1	696018050	6097	222759
1	696133773	6098	220109
1	696250397	6099	222547
1	696367016	6100	222123
1	696483636	6101	221911
1	696599979	6102	221116
1	696716203	6103	221646
1	696832304	6104	220639
1	696949112	6105	222229
1	697064939	6106	221169
1	697181681	6107	222653
1	697297618	6108	220851
1	697413661	6109	220215
1	697530119	6110	220374
1	697646380	6111	221222
1	697762726	6112	221911
1	697879338	6113	222494
1	697995219	6114	220586
1	698111404	6115	221169
1	698227924	6116	221646
1	698345058	6117	223713
1	698461086	6118	220692
1	698577588	6119	220745
1	698693859	6120	221964
1	698810418	6121	222070
1	698927245	6122	221434
1	699043617	6123	222494
1	699159459	6124	221487
1	699276658	6125	220268
1	699392556	6126	221381
1	699509273	6127	222706
1	699625390	6128	220003
1	699742121	6129	223607
1	699858642	6130	220692
1	699975012	6131	221487
1	700091264	6132	222229
1	700207892	6133	221063
1	700324770	6134	223925
1	700440985	6135	219950
1	700557473	6136	222123
1	700674067	6137	222706
1	700790224	6138	220109
1	700906394	6139	219738
1	701022344	6140	220374
1	701139049	6141	222123
1	701254748	6142	220109
1	701371601	6143	221805
1	701487864	6144	220321
1	701605282	6145	225462
1	701721574	6146	222017
1	701837397	6147	218625
1	701954014	6148	221593
1	702070307	6149	219632
1	702187101	6150	222918
1	702303165	6151	221858
1	702419837	6152	220215
1	702536190	6153	222494
1	702652758	6154	221169
1	702768784	6155	221646
1	702885796	6156	221752
1	703002514	6157	222706
1	703118905	6158	220798
1	703235440	6159	223236
1	703352645	6160	223713
1	703468910	6161	220692
1	703585884	6162	223607
1	703702514	6163	221328
1	703818603	6164	220957
1	703935866	6165	222865
1	704052369	6166	223607
1	704169016	6167	220586
1	704285434	6168	221328
1	704401868	6169	220639
1	704518553	6170	221169
1	704635161	6171	222282
1	704751792	6172	220957
1	704867993	6173	221328
1	704984690	6174	221911
1	705101513	6175	223236
1	705218053	6176	221487
1	705334469	6177	221858
1	705451340	6178	222229
1	705567967	6179	221911
1	705684207	6180	221646
1	705800393	6181	221540
1	705916943	6182	222017
1	706033433	6183	221116
1	706149794	6184	221540
1	706266742	6185	223342
1	706382752	6186	219685
1	706498862	6187	220533
1	706614921	6188	220851
1	706731428	6189	222282
1	706847985	6190	220639
1	706964466	6191	222706
1	707081018	6192	221328
1	707197654	6193	221328
1	707314212	6194	222176
1	707430936	6195	221858
1	707546949	6196	219950
1	707663341	6197	221434
1	707779671	6198	222123
1	707896053	6199	221328
1	708011861	6200	222229
1	708128301	6201	221593
1	708244691	6202	220003
1	708360992	6203	222335
1	708477189	6204	220533
1	708593250	6205	220692
1	708709800	6206	221434
1	708825710	6207	220851
1	708942025	6208	221169
1	709058969	6209	222494
1	709175468	6210	222812
1	709292145	6211	222070
1	709408012	6212	218201
1	709524837	6213	222865
1	709641202	6214	223289
1	709757673	6215	221381
1	709874754	6216	222494
1	709990972	6217	220798
1	710107942	6218	224137
1	710224703	6219	223077
1	710340894	6220	220003
1	710457590	6221	221699
1	710573841	6222	220586
1	710690186	6223	222335
1	710806343	6224	221964
1	710923597	6225	223130
1	711039816	6226	221381
1	711156641	6227	222017
1	711272375	6228	219473
1	711388187	6229	220745
1	711505175	6230	222017
1	711621494	6231	220480
1	711737844	6232	221752
1	711854136	6233	221858
1	711970776	6234	219685
1	712087260	6235	223130
1	712204038	6236	223024
1	712321168	6237	222971
1	712437911	6238	222229
1	712554340	6239	221381
1	712670897	6240	221222
1	712787514	6241	222494
1	712903470	6242	220215
1	713019901	6243	221381
1	713136923	6244	222653
1	713252896	6245	220427
1	713369401	6246	222388
1	713486171	6247	219314
1	713602750	6248	221646
1	713718241	6249	219102
1	713834408	6250	221381
1	713950892	6251	221010
1	714067594	6252	223077
1	714184563	6253	221434
1	714301404	6254	223342
1	714417507	6255	220798
1	714534277	6256	222176
1	714651410	6257	222547
1	714767106	6258	219897
1	714883453	6259	220215
1	714999283	6260	218890
1	715115424	6261	221434
1	715232056	6262	222176
1	715348243	6263	220162
1	715464826	6264	222176
1	715581262	6265	221805
1	715697840	6266	221381
1	715814954	6267	223024
1	715931177	6268	220851
1	716047794	6269	221487
1	716164596	6270	224031
1	716280979	6271	219632
1	716397010	6272	220851
1	716514241	6273	223342
1	716630219	6274	220904
1	716747163	6275	223660
1	716863756	6276	220851
1	716980440	6277	222388
1	717096731	6278	219261
1	717212294	6279	221593
1	717328957	6280	219473
1	717445179	6281	222600
1	717560892	6282	217830
1	717677605	6283	221540
1	717793721	6284	221699
1	717910719	6285	222865
1	718026320	6286	220109
1	718143119	6287	220109
1	718259583	6288	222229
1	718375279	6289	220215
1	718491522	6290	222176
1	718607714	6291	219579
1	718724367	6292	223077
1	718840707	6293	221169
1	718957324	6294	223077
1	719074191	6295	221752
1	719189950	6296	220056
1	719306101	6297	221593
1	719422852	6298	220957
1	719538137	6299	219685
1	719655218	6300	222706
1	719771338	6301	220639
1	719887390	6302	222547
1	720004953	6303	224084
1	720121196	6304	220374
1	720237675	6305	222494
1	720354501	6306	223554
1	720471261	6307	221699
1	720587599	6308	220692
1	720704817	6309	224508
1	720821015	6310	221275
1	720937510	6311	220957
1	721053624	6312	220109
1	721170676	6313	223554
1	721287280	6314	222494
1	721403484	6315	219844
1	721519904	6316	221381
1	721636351	6317	221540
1	721752950	6318	222812
1	721869156	6319	221116
1	721986083	6320	221540
1	722102223	6321	220586
1	722218574	6322	222706
1	722335454	6323	221911
1	722451991	6324	220639
1	722568281	6325	222176
1	722685090	6326	222706
1	722801525	6327	222176
1	722918162	6328	221752
1	723034718	6329	221328
1	723151362	6330	222388
1	723267746	6331	221381
1	723383923	6332	220321
1	723500093	6333	220003
1	723617236	6334	224932
1	723734029	6335	221593
1	723850821	6336	222070
1	723968254	6337	223925
1	724084569	6338	221222
1	724201240	6339	222335
1	724318499	6340	223183
1	724434968	6341	222865
1	724551146	6342	221540
1	724668043	6343	221487
1	724784599	6344	222070
1	724901723	6345	224296
1	725018772	6346	223554
1	725135265	6347	220321
1	725251244	6348	222070
1	725367883	6349	222547
1	725485312	6350	223660
1	725601910	6351	222865
1	725718207	6352	220480
1	725834397	6353	220586
1	725950887	6354	221752
1	726066868	6355	221063
1	726182839	6356	221752
1	726299961	6357	222229
1	726416387	6358	222494
1	726533302	6359	223130
1	726649869	6360	221752
1	726766521	6361	222123
1	726883473	6362	222441
1	726999778	6363	222706
1	727116245	6364	221116
1	727232833	6365	222335
1	727349906	6366	224190
1	727466051	6367	220639
1	727583500	6368	224985
1	727700188	6369	222812
1	727816808	6370	221169
1	727933328	6371	222388
1	728050380	6372	222971
1	728166766	6373	222123
1	728283128	6374	222494
1	728399436	6375	220904
1	728516654	6376	223395
1	728632951	6377	222176
1	728749285	6378	220215
1	728866296	6379	223660
1	728983443	6380	223236
1	729100082	6381	222176
1	729216414	6382	222335
1	729333838	6383	223448
1	729450784	6384	221858
1	729567541	6385	224031
1	729684805	6386	222971
1	729801134	6387	221858
1	729918099	6388	223342
1	730035529	6389	222918
1	730152243	6390	222441
1	730268774	6391	220851
1	730385911	6392	224137
1	730502720	6393	222388
1	730619628	6394	223395
1	730736816	6395	222282
1	730853521	6396	223236
1	730970210	6397	222918
1	731088006	6398	224296
1	731204282	6399	220692
1	731320142	6400	220427
1	731436931	6401	222547
1	731553904	6402	222176
1	731669921	6403	222123
1	731786721	6404	222494
1	731903587	6405	222441
1	732020039	6406	221646
1	732136729	6407	222335
1	732253005	6408	221222
1	732370105	6409	221805
1	732487078	6410	223607
1	732603879	6411	222282
1	732721194	6412	224084
1	732837429	6413	220162
1	732953490	6414	222176
1	733070373	6415	222123
1	733186778	6416	221169
1	733303170	6417	221858
1	733420244	6418	222547
1	733537255	6419	223183
1	733653876	6420	221805
1	733770543	6421	223077
1	733887335	6422	221487
1	734003560	6423	222600
1	734120355	6424	222123
1	734236873	6425	220957
1	734353942	6426	222547
1	734470778	6427	222653
1	734587812	6428	221381
1	734704632	6429	222176
1	734821750	6430	222123
1	734938334	6431	222441
1	735055925	6432	224190
1	735172275	6433	221646
1	735289187	6434	222918
1	735405753	6435	221805
1	735522658	6436	222812
1	735639961	6437	222123
1	735757099	6438	224349
1	735874188	6439	224349
1	735991553	6440	222706
1	736108664	6441	223183
1	736225403	6442	222335
1	736342482	6443	224826
1	736459875	6444	222600
1	736576994	6445	222759
1	736693852	6446	221434
1	736811473	6447	225674
1	736928139	6448	221010
1	737044286	6449	221699
1	737161437	6450	223183
1	737278633	6451	222759
1	737395961	6452	222865
1	737512224	6453	221540
1	737629697	6454	224031
1	737746511	6455	221964
1	737863653	6456	223607
1	737980905	6457	223130
1	738098257	6458	223183
1	738214946	6459	222600
1	738331993	6460	222441
1	738448832	6461	223130
1	738565241	6462	220533
1	738681854	6463	221752
1	738798446	6464	221169
1	738915191	6465	222123
1	739031865	6466	223077
1	739149027	6467	221699
1	739265804	6468	220692
1	739382279	6469	222706
1	739499705	6470	223872
1	739616333	6471	221328
1	739732808	6472	220692
1	739849210	6473	221858
1	739965697	6474	220003
1	740082233	6475	222812
1	740199255	6476	223607
1	740315861	6477	222017
1	740432732	6478	221858
1	740549231	6479	220957
1	740666161	6480	223607
1	740782841	6481	222971
1	740899651	6482	220162
1	741016303	6483	222759
1	741133143	6484	222176
1	741250677	6485	223183
1	741366517	6486	221646
1	741483572	6487	222971
1	741601025	6488	224137
1	741718142	6489	223766
1	741835714	6490	223130
1	741952036	6491	221063
1	742068817	6492	223501
1	742186094	6493	222547
1	742302438	6494	219367
1	742419020	6495	222229
1	742536088	6496	223024
1	742652808	6497	221752
1	742769687	6498	221858
1	742885781	6499	220692
1	743002858	6500	223819
1	743119378	6501	221328
1	743235938	6502	221116
1	743353051	6503	222706
1	743469732	6504	222918
1	743586449	6505	220639
1	743703349	6506	221752
1	743820416	6507	224561
1	743937066	6508	221858
1	744054398	6509	223236
1	744170496	6510	219844
1	744286593	6511	220904
1	744403638	6512	222070
1	744520431	6513	223660
1	744637585	6514	222335
1	744754346	6515	221540
1	744871610	6516	223819
1	744988141	6517	221116
1	745105305	6518	222918
1	745222930	6519	225409
1	745339814	6520	220851
1	745456441	6521	223342
1	745573263	6522	221275
1	745691134	6523	225250
1	745808290	6524	223660
1	745925035	6525	221805
1	746042385	6526	223607
1	746159182	6527	222017
1	746276318	6528	222388
1	746392527	6529	222282
1	746510113	6530	222600
1	746626518	6531	222441
1	746743733	6532	221752
1	746860322	6533	222123
1	746976906	6534	222600
1	747093563	6535	221911
1	747210416	6536	223130
1	747327533	6537	222547
1	747444764	6538	222494
1	747561581	6539	224031
1	747679182	6540	223024
1	747796282	6541	223183
1	747913196	6542	222070
1	748029908	6543	222335
1	748146419	6544	221063
1	748263928	6545	224349
1	748380715	6546	223501
1	748497201	6547	221381
1	748614508	6548	222441
1	748731459	6549	222706
1	748848622	6550	223660
1	748965387	6551	222017
1	749082663	6552	223342
1	749198641	6553	220215
1	749315285	6554	222123
1	749432387	6555	223289
1	749549753	6556	223130
1	749666654	6557	223819
1	749783930	6558	223395
1	749900049	6559	219791
1	750017424	6560	224084
1	750133977	6561	221540
1	750250673	6562	223130
1	750367812	6563	222918
1	750484539	6564	221593
1	750601075	6565	223183
1	750718548	6566	222123
1	750835531	6567	222865
1	750952138	6568	222123
1	751068410	6569	221911
1	751185851	6570	222865
1	751302854	6571	222653
1	751419831	6572	223236
1	751536750	6573	221540
1	751653709	6574	222865
1	751771532	6575	224932
1	751888510	6576	222123
1	752005096	6577	222070
1	752122073	6578	221911
1	752238848	6579	221805
1	752356066	6580	223289
1	752473546	6581	223978
1	752590583	6582	222600
1	752707571	6583	221858
1	752824125	6584	221487
1	752941315	6585	223130
1	753058459	6586	223077
1	753175184	6587	221752
1	753292372	6588	222971
1	753408828	6589	220533
1	753526008	6590	222017
1	753642591	6591	222547
1	753759410	6592	220851
1	753876133	6593	222282
1	753993597	6594	223660
1	754110570	6595	223872
1	754227747	6596	221646
1	754345118	6597	223554
1	754462016	6598	222017
1	754578567	6599	221593
1	754695404	6600	224084
1	754811747	6601	219420
1	754928168	6602	222123
1	755045238	6603	221964
1	755162635	6604	222971
1	755280058	6605	223766
1	755396181	6606	220427
1	755512983	6607	219950
1	755630070	6608	223130
1	755746633	6609	221487
1	755863339	6610	221169
1	755980710	6611	224667
1	756097982	6612	222653
1	756215395	6613	223342
1	756332518	6614	222229
1	756450019	6615	223819
1	756567517	6616	221222
1	756684571	6617	224190
1	756801042	6618	220745
1	756918650	6619	223819
1	757034999	6620	220268
1	757151930	6621	222017
1	757268898	6622	223024
1	757385827	6623	220109
1	757503248	6624	223554
1	757619695	6625	221540
1	757737142	6626	224455
1	757853901	6627	222282
1	757971165	6628	221381
1	758087654	6629	220533
1	758204403	6630	222388
1	758321311	6631	222070
1	758439118	6632	225568
1	758555084	6633	219102
1	758671816	6634	221169
1	758788707	6635	222812
1	758905532	6636	221911
1	759022366	6637	222123
1	759138783	6638	222176
1	759255244	6639	221328
1	759372752	6640	223607
1	759488733	6641	221275
1	759606346	6642	222812
1	759722758	6643	220215
1	759839464	6644	222017
1	759956609	6645	224243
1	760073836	6646	222865
1	760190197	6647	220480
1	760307116	6648	222706
1	760424646	6649	224031
1	760541511	6650	221063
1	760658667	6651	223713
1	760775228	6652	220957
1	760892522	6653	221646
1	761009309	6654	223130
1	761126290	6655	222176
1	761242913	6656	221911
1	761359863	6657	221381
1	761476872	6658	223077
1	761593153	6659	220533
1	761709276	6660	219844
1	761826789	6661	224349
1	761943216	6662	221593
1	762060096	6663	221646
1	762176978	6664	220904
1	762293484	6665	221275
1	762410267	6666	221752
1	762527215	6667	222388
1	762644331	6668	223289
1	762760717	6669	221169
1	762877483	6670	221381
1	762995077	6671	224084
1	763111460	6672	222229
1	763228603	6673	221699
1	763344921	6674	222759
1	763461733	6675	220745
1	763578560	6676	222812
1	763695183	6677	220321
1	763812130	6678	222123
1	763928586	6679	221646
1	764045184	6680	221487
1	764162083	6681	222017
1	764278564	6682	220480
1	764395323	6683	222600
1	764512356	6684	221805
1	764629686	6685	222759
1	764746395	6686	222865
1	764863906	6687	222282
1	764980803	6688	221646
1	765098136	6689	223607
1	765215379	6690	223607
1	765332603	6691	222600
1	765449002	6692	219579
1	765566023	6693	222812
1	765683512	6694	223766
1	765800583	6695	222759
1	765917279	6696	220480
1	766033648	6697	221381
1	766151113	6698	223236
1	766267489	6699	220268
1	766384617	6700	224349
1	766501715	6701	222017
1	766618256	6702	220692
1	766735411	6703	223077
1	766852284	6704	222176
1	766969045	6705	222017
1	767086326	6706	223289
1	767203112	6707	221752
1	767320452	6708	222070
1	767437305	6709	222865
1	767554536	6710	220745
1	767671604	6711	224667
1	767788484	6712	219897
1	767905061	6713	221805
1	768021956	6714	222017
1	768139018	6715	222335
1	768255961	6716	222865
1	768372777	6717	222547
1	768489792	6718	222070
1	768606499	6719	220268
1	768723507	6720	221434
1	768839887	6721	222229
1	768957569	6722	222971
1	769074278	6723	222123
1	769191392	6724	223024
1	769307806	6725	220692
1	769424498	6726	221275
1	769541933	6727	222918
1	769658612	6728	220957
1	769775397	6729	222759
1	769891894	6730	219420
1	770009243	6731	223395
1	770126040	6732	222706
1	770243562	6733	222653
1	770360231	6734	220215
1	770476896	6735	221540
1	770593294	6736	221858
1	770710492	6737	221328
1	770827070	6738	221487
1	770944243	6739	222388
1	771061032	6740	221964
1	771178165	6741	221699
1	771294704	6742	221434
1	771411137	6743	220162
1	771528525	6744	222547
1	771645191	6745	221858
1	771762319	6746	221434
1	771879136	6747	221116
1	771996249	6748	222229
1	772113496	6749	222706
1	772230244	6750	222070
1	772347502	6751	221434
1	772464204	6752	221646
1	772581867	6753	224932
1	772698715	6754	219632
1	772816328	6755	223077
1	772933427	6756	221752
1	773050158	6757	220003
1	773167353	6758	223289
1	773284486	6759	222282
1	773401511	6760	222017
1	773518909	6761	222865
1	773636198	6762	223554
1	773753294	6763	221434
1	773869920	6764	221010
1	773987158	6765	222017
1	774104025	6766	221010
1	774220853	6767	221911
1	774338085	6768	222441
1	774454658	6769	220586
1	774571521	6770	220904
1	774688461	6771	221540
1	774804935	6772	219685
1	774921664	6773	222017
1	775038075	6774	220268
1	775154497	6775	220639
1	775271839	6776	224084
1	775388326	6777	220056
1	775505255	6778	222282
1	775622720	6779	222706
1	775739574	6780	221911
1	775855768	6781	220056
1	775972119	6782	219950
1	776088992	6783	221063
1	776205244	6784	221593
1	776322115	6785	218890
1	776438585	6786	223024
1	776555025	6787	218996
1	776671868	6788	221593
1	776788144	6789	220904
1	776905089	6790	221381
1	777021624	6791	220533
1	777138673	6792	223236
1	777254543	6793	216611
1	777371640	6794	222176
1	777487721	6795	220056
1	777604757	6796	222600
1	777720861	6797	219632
1	777837513	6798	221063
1	777954601	6799	222547
1	778070843	6800	218678
1	778187344	6801	222388
1	778303932	6802	220533
1	778420716	6803	221328
1	778537120	6804	221699
1	778654000	6805	219314
1	778770377	6806	222282
1	778886955	6807	220533
1	779003422	6808	220639
1	779119842	6809	220851
1	779236518	6810	221328
1	779352713	6811	218943
1	779469586	6812	223501
1	779585857	6813	218996
1	779702254	6814	222017
1	779819553	6815	221540
1	779936668	6816	221699
1	780053380	6817	222388
1	780169616	6818	219261
1	780286826	6819	222229
1	780403140	6820	220268
1	780520139	6821	222123
1	780636898	6822	222706
1	780753407	6823	220692
1	780870121	6824	220851
1	780987058	6825	220639
1	781103428	6826	221805
1	781220421	6827	220851
1	781336630	6828	221275
1	781453365	6829	222388
1	781569516	6830	219632
1	781685812	6831	220321
1	781802459	6832	219950
1	781919041	6833	221699
1	782035797	6834	222335
1	782151746	6835	218784
1	782268618	6836	221434
1	782385305	6837	220586
1	782501639	6838	218625
1	782618500	6839	222865
1	782735045	6840	222388
1	782852110	6841	220851
1	782968203	6842	220321
1	783084915	6843	221328
1	783201641	6844	220851
1	783318484	6845	221646
1	783434715	6846	221222
1	783551120	6847	220268
1	783667479	6848	221911
1	783783132	6849	217777
1	783899608	6850	220745
1	784016552	6851	221646
1	784133313	6852	220056
1	784249912	6853	221328
1	784366921	6854	221381
1	784483335	6855	219950
1	784599714	6856	221540
1	784716162	6857	220056
1	784832966	6858	220533
1	784949419	6859	222494
1	785066190	6860	221381
1	785182984	6861	222229
1	785299235	6862	219579
1	785416040	6863	222388
1	785533123	6864	221805
1	785650105	6865	221328
1	785766230	6866	219685
1	785882170	6867	218890
1	785998912	6868	222229
1	786115439	6869	221752
1	786232354	6870	221964
1	786348900	6871	220003
1	786465290	6872	220268
1	786581310	6873	220692
1	786697789	6874	220003
1	786814660	6875	221275
1	786930935	6876	221063
1	787047093	6877	220427
1	787163442	6878	220798
1	787279749	6879	221063
1	787397308	6880	223554
1	787513634	6881	219367
1	787629791	6882	219420
1	787747042	6883	222759
1	787863450	6884	221699
1	787980854	6885	222494
1	788096893	6886	220321
1	788213318	6887	219579
1	788330063	6888	223554
1	788447446	6889	222282
1	788563958	6890	221434
1	788681249	6891	221116
1	788798056	6892	221805
1	788914940	6893	221964
1	789031663	6894	221964
1	789148066	6895	219420
1	789265458	6896	223607
1	789381434	6897	221010
1	789499047	6898	222918
1	789615238	6899	221116
1	789732300	6900	223236
1	789848589	6901	218837
1	789965674	6902	223183
1	790082217	6903	221169
1	790198496	6904	220480
1	790315402	6905	222494
1	790432507	6906	220533
1	790548775	6907	221434
1	790664955	6908	219844
1	790781609	6909	222653
1	790898308	6910	221010
1	791014788	6911	221169
1	791131641	6912	221752
1	791247512	6913	217724
1	791364607	6914	222706
1	791481628	6915	222918
1	791597997	6916	221699
1	791714660	6917	219314
1	791831701	6918	223978
1	791948431	6919	220586
1	792065593	6920	222547
1	792182307	6921	221805
1	792298875	6922	220586
1	792415470	6923	221911
1	792531410	6924	218678
1	792648828	6925	224296
1	792765103	6926	221010
1	792881532	6927	218943
1	792998629	6928	222759
1	793114670	6929	221116
1	793231182	6930	219632
1	793348118	6931	222229
1	793463754	6932	217724
1	793580588	6933	221593
1	793697234	6934	221116
1	793813740	6935	220904
1	793930769	6936	222176
1	794046741	6937	218996
1	794163358	6938	222441
1	794279579	6939	219367
1	794396485	6940	221699
1	794513305	6941	221752
1	794629567	6942	221169
1	794745203	6943	219049
1	794861889	6944	222335
1	794979164	6945	222600
1	795095120	6946	219579
1	795212087	6947	221911
1	795327893	6948	217883
1	795443920	6949	220533
1	795560216	6950	221275
1	795676905	6951	220427
1	795793100	6952	221275
1	795908997	6953	219155
1	796025649	6954	222759
1	796142278	6955	220586
1	796258856	6956	222865
1	796375424	6957	219632
1	796492283	6958	222229
1	796608878	6959	222812
1	796725006	6960	219208
1	796841094	6961	220692
1	796957925	6962	223077
1	797074262	6963	221275
1	797190726	6964	220268
1	797307345	6965	221222
1	797423685	6966	221222
1	797540315	6967	221381
1	797656751	6968	221434
1	797772288	6969	219473
1	797889055	6970	222600
1	798004497	6971	218572
1	798120841	6972	220427
1	798237434	6973	222123
1	798353428	6974	220268
1	798470024	6975	220162
1	798585940	6976	220162
1	798702697	6977	222229
1	798819297	6978	221063
1	798935680	6979	220957
1	799051596	6980	220003
1	799167795	6981	220639
1	799283927	6982	221169
1	799400153	6983	220109
1	799515634	6984	218678
1	799631500	6985	218360
1	799748348	6986	224296
1	799864027	6987	219155
1	799980703	6988	221646
1	800097257	6989	221275
1	800213830	6990	222918
1	800330308	6991	220692
1	800446752	6992	220904
1	800562891	6993	220692
1	800679599	6994	220904
1	800796432	6995	221434
1	800911810	6996	220692
1	801027523	6997	218572
1	801144123	6998	219844
1	801260610	6999	222441
1	801377164	7000	221116
1	801493527	7001	221275
1	801609337	7002	218996
1	801726163	7003	222388
1	801842330	7004	221964
1	801959113	7005	219632
1	802074770	7006	218148
1	802191289	7007	223130
1	802307040	7008	218254
1	802424136	7009	221646
1	802540196	7010	220639
1	802657418	7011	223554
1	802773579	7012	219950
1	802890240	7013	220745
1	803006299	7014	219950
1	803122662	7015	219155
1	803238872	7016	221275
1	803356044	7017	223872
1	803473011	7018	222282
1	803589349	7019	220904
1	803705485	7020	219526
1	803821436	7021	219791
1	803938359	7022	220745
1	804054825	7023	222494
1	804171083	7024	221434
1	804287327	7025	221434
1	804403556	7026	220321
1	804519575	7027	219208
1	804636209	7028	220692
1	804753032	7029	223395
1	804869331	7030	220215
1	804985848	7031	222070
1	805102378	7032	219632
1	805218767	7033	221487
1	805335240	7034	221487
1	805451940	7035	220851
1	805568333	7036	220851
1	805684928	7037	221593
1	805801407	7038	220003
1	805917462	7039	220639
1	806034211	7040	220639
1	806150709	7041	220745
1	806267278	7042	221964
1	806383202	7043	220321
1	806499925	7044	220745
1	806615628	7045	219526
1	806732096	7046	221063
1	806848295	7047	219632
1	806963519	7048	218678
1	807080522	7049	221381
1	807196417	7050	221010
1	807313542	7051	222017
1	807429672	7052	220056
1	807546001	7053	221752
1	807661790	7054	220162
1	807779037	7055	221487
1	807895168	7056	220215
1	808012104	7057	221752
1	808128370	7058	221646
1	808245161	7059	221116
1	808361351	7060	219155
1	808478125	7061	222547
1	808594418	7062	219049
1	808710122	7063	219473
1	808827159	7064	223289
1	808943558	7065	219526
1	809059903	7066	221328
1	809176971	7067	222547
1	809293404	7068	220427
1	809409286	7069	219208
1	809525744	7070	221222
1	809642268	7071	220639
1	809758314	7072	218678
1	809874426	7073	220480
1	809991327	7074	221593
1	810106791	7075	219738
1	810223962	7076	222918
1	810340128	7077	220480
1	810456474	7078	219579
1	810572256	7079	220321
1	810688852	7080	221275
1	810805239	7081	220851
1	810922179	7082	221752
1	811038703	7083	220851
1	811154616	7084	220321
1	811270571	7085	220162
1	811386429	7086	219844
1	811502739	7087	219473
1	811619701	7088	221699
1	811735817	7089	220056
1	811851892	7090	220003
1	811968085	7091	220003
1	812084675	7092	221911
1	812200757	7093	220215
1	812317335	7094	221381
1	812433720	7095	219367
1	812549719	7096	220321
1	812665971	7097	220215
1	812781716	7098	219526
1	812898580	7099	222653
1	813015114	7100	220533
1	813131220	7101	219791
1	813247378	7102	220480
1	813364290	7103	221328
1	813480271	7104	219738
1	813596830	7105	222229
1	813713172	7106	219579
1	813829633	7107	220957
1	813945297	7108	220586
1	814061756	7109	220639
1	814178347	7110	221222
1	814294510	7111	220851
1	814410790	7112	220003
1	814527098	7113	219208
1	814643189	7114	221222
1	814759388	7115	221010
1	814875712	7116	220374
1	814991037	7117	216929
1	815107348	7118	221381
1	815223588	7119	219844
1	815339562	7120	220374
1	815455077	7121	217671
1	815571323	7122	221699
1	815687860	7123	221646
1	815804159	7124	220957
1	815920179	7125	219420
1	816036623	7126	220480
1	816152833	7127	220639
1	816269496	7128	222070
1	816385234	7129	217883
1	816501591	7130	222441