version 2
run AimdCC-1-20100909-13:51:54-1360
attr configname AimdCC
attr datetime 20100909-13:51:54
attr delay 200ms
attr experiment AimdCC
attr inifile D:/Developement/Oversim2/multic/simulations/omnetpp.ini
attr iterationvars $delay=200ms
attr iterationvars2 "$delay=200ms, $repetition=0"
attr measurement $delay=200ms
attr network oversim.underlay.simpleunderlay.SimpleUnderlayNetwork
attr processid 1360
attr repetition 0
attr replication #0
attr resultdir results
attr runnumber 1
attr seedset 1

vector 1  SimpleUnderlayNetwork.globalObserver.globalStatistics  incoming_bytes  ETV
vector 2  SimpleUnderlayNetwork.globalObserver.globalStatistics  drops  ETV
vector 3  SimpleUnderlayNetwork.globalObserver.globalStatistics  delayed_acks  ETV
vector 4  SimpleUnderlayNetwork.globalObserver.globalStatistics  timetotimeouts  ETV
vector 5  SimpleUnderlayNetwork.globalObserver.globalStatistics  9rateOf1To0  ETV
vector 6  SimpleUnderlayNetwork.globalObserver.globalStatistics  max9RateOf1To0  ETV
vector 7  SimpleUnderlayNetwork.globalObserver.globalStatistics  9rateOf1To1  ETV
vector 8  SimpleUnderlayNetwork.globalObserver.globalStatistics  max9RateOf1To1  ETV
vector 9  SimpleUnderlayNetwork.globalObserver.globalStatistics  9rateOf1To2  ETV
vector 10  SimpleUnderlayNetwork.globalObserver.globalStatistics  max9RateOf1To2  ETV
vector 11  SimpleUnderlayNetwork.globalObserver.globalStatistics  9rateOf1To3  ETV
vector 12  SimpleUnderlayNetwork.globalObserver.globalStatistics  max9RateOf1To3  ETV
vector 13  SimpleUnderlayNetwork.globalObserver.globalStatistics  9rateOf1To4  ETV
vector 14  SimpleUnderlayNetwork.globalObserver.globalStatistics  max9RateOf1To4  ETV
vector 15  SimpleUnderlayNetwork.globalObserver.globalStatistics  9rateOf1To5  ETV
vector 16  SimpleUnderlayNetwork.globalObserver.globalStatistics  max9RateOf1To5  ETV
vector 17  SimpleUnderlayNetwork.globalObserver.globalStatistics  9rateOf1To6  ETV
vector 18  SimpleUnderlayNetwork.globalObserver.globalStatistics  max9RateOf1To6  ETV
vector 19  SimpleUnderlayNetwork.globalObserver.globalStatistics  9rateOf1To7  ETV
vector 20  SimpleUnderlayNetwork.globalObserver.globalStatistics  max9RateOf1To7  ETV
vector 21  SimpleUnderlayNetwork.globalObserver.globalStatistics  9rateOf1To8  ETV
vector 22  SimpleUnderlayNetwork.globalObserver.globalStatistics  max9RateOf1To8  ETV
vector 23  SimpleUnderlayNetwork.globalObserver.globalStatistics  9rateOf1To9  ETV
vector 24  SimpleUnderlayNetwork.globalObserver.globalStatistics  max9RateOf1To9  ETV
vector 25  SimpleUnderlayNetwork.globalObserver.globalStatistics  1rate  ETV
vector 26  SimpleUnderlayNetwork.globalObserver.globalStatistics  max2Rate  ETV
vector 27  SimpleUnderlayNetwork.globalObserver.globalStatistics  "GlobalNodeList: Number of nodes"  ETV
vector 28  SimpleUnderlayNetwork.globalObserver.globalStatistics  "GlobalNodeList: Number of bootstrapped malicious nodes"  ETV
1	26452227	6017	7685
1	26456284	6018	7632
1	26460350	6019	7632
1	26464458	6020	7685
1	26468548	6021	7738
1	26472643	6022	7632
1	26476698	6023	7685
1	26480796	6024	7632
1	26484842	6025	7579
1	26488915	6026	7685
1	26492970	6027	7632
1	26497012	6028	7526
1	26501019	6029	7579
1	26505048	6030	7526
1	26509125	6031	7685
1	26513211	6032	7632
1	26517297	6033	7685
1	26521348	6034	7579
1	26525431	6035	7738
1	26529531	6036	7685
1	26533608	6037	7632
1	26537690	6038	7685
1	26541772	6039	7685
1	26545839	6040	7632
1	26549873	6041	7579
1	26553962	6042	7685
1	26558015	6043	7526
1	26561959	6044	7420
1	26565952	6045	7420
1	26569926	6046	7473
1	26573921	6047	7526
1	26577924	6048	7526
1	26581973	6049	7526
1	26585942	6050	7420
1	26589929	6051	7526
1	26593948	6052	7526
1	26597969	6053	7526
1	26602004	6054	7579
1	26606031	6055	7579
1	26610091	6056	7579
1	26614077	6057	7526
1	26618104	6058	7473
1	26622097	6059	7579
1	26626148	6060	7526
1	26630164	6061	7526
1	26634187	6062	7579
1	26638296	6063	7632
1	26642291	6064	7579
1	26646325	6065	7473
1	26650364	6066	7632
1	26654407	6067	7579
1	26658425	6068	7526
1	26662461	6069	7579
1	26666528	6070	7632
1	26670590	6071	7632
1	26674663	6072	7632
1	26678702	6073	7579
1	26682720	6074	7526
1	26686701	6075	7420
1	26690729	6076	7579
1	26694722	6077	7526
1	26698747	6078	7526
1	26702772	6079	7526
1	26706756	6080	7526
1	26710766	6081	7526
1	26714793	6082	7526
1	26718769	6083	7473
1	26722785	6084	7526
1	26726847	6085	7579
1	26730856	6086	7473
1	26734882	6087	7632
1	26738922	6088	7526
1	26742941	6089	7579
1	26746922	6090	7473
1	26750924	6091	7473
1	26754903	6092	7526
1	26758863	6093	7367
1	26762889	6094	7579
1	26766882	6095	7420
1	26770920	6096	7632
1	26774981	6097	7632
1	26778981	6098	7473
1	26782970	6099	7579
1	26787027	6100	7526
1	26791049	6101	7579
1	26795019	6102	7420
1	26798909	6103	7261
1	26802809	6104	7314
1	26806751	6105	7367
1	26810698	6106	7420
1	26814606	6107	7367
1	26818584	6108	7420
1	26822477	6109	7261
1	26826423	6110	7420
1	26830377	6111	7367
1	26834310	6112	7367
1	26838237	6113	7367
1	26842159	6114	7314
1	26846081	6115	7367
1	26850014	6116	7367
1	26853915	6117	7208
1	26857804	6118	7314
1	26861706	6119	7314
1	26865629	6120	7314
1	26869518	6121	7314
1	26873427	6122	7367
1	26877340	6123	7261
1	26881226	6124	7261
1	26885127	6125	7261
1	26889000	6126	7314
1	26892913	6127	7314
1	26896806	6128	7261
1	26900679	6129	7208
1	26904548	6130	7261
1	26908375	6131	7155
1	26912210	6132	7155
1	26916057	6133	7155
1	26919926	6134	7261
1	26923774	6135	7208
1	26927613	6136	7155
1	26931466	6137	7155
1	26935339	6138	7261
1	26939233	6139	7314
1	26943098	6140	7208
1	26946990	6141	7261
1	26950868	6142	7314
1	26954741	6143	7155
1	26958609	6144	7208
1	26962449	6145	7208
1	26966300	6146	7208
1	26970167	6147	7261
1	26974054	6148	7208
1	26977905	6149	7261
1	26981757	6150	7208
1	26985591	6151	7102
1	26989431	6152	7155
1	26993325	6153	7314
1	26997172	6154	7208
1	27001061	6155	7314
1	27004967	6156	7261
1	27008805	6157	7155
1	27012709	6158	7261
1	27016607	6159	7367
1	27020530	6160	7314
1	27024455	6161	7314
1	27028363	6162	7367
1	27032286	6163	7314
1	27036175	6164	7314
1	27040115	6165	7261
1	27044010	6166	7314
1	27047906	6167	7314
1	27051801	6168	7314
1	27055760	6169	7314
1	27059644	6170	7314
1	27063519	6171	7314
1	27067466	6172	7314
1	27071381	6173	7367
1	27075245	6174	7208
1	27079151	6175	7261
1	27083033	6176	7367
1	27086920	6177	7261
1	27090855	6178	7314
1	27094751	6179	7261
1	27098661	6180	7367
1	27102552	6181	7314
1	27106444	6182	7208
1	27110312	6183	7261
1	27114206	6184	7261
1	27118108	6185	7367
1	27122006	6186	7261
1	27125913	6187	7367
1	27129806	6188	7155
1	27133674	6189	7208
1	27137555	6190	7314
1	27141418	6191	7208
1	27145255	6192	7155
1	27149110	6193	7261
1	27152990	6194	7208
1	27156824	6195	7208
1	27160670	6196	7155
1	27164502	6197	7155
1	27168325	6198	7155
1	27172156	6199	7155
1	27175975	6200	7102
1	27179750	6201	6996
1	27183489	6202	6996
1	27187292	6203	7102
1	27191065	6204	7102
1	27194854	6205	7049
1	27198673	6206	7049
1	27202450	6207	7102
1	27206251	6208	7049
1	27210038	6209	7102
1	27213854	6210	7102
1	27217624	6211	6996
1	27221395	6212	7102
1	27225196	6213	7102
1	27229005	6214	7102
1	27232868	6215	7208
1	27236719	6216	7261
1	27240595	6217	7208
1	27244461	6218	7261
1	27248315	6219	7208
1	27252125	6220	7049
1	27255968	6221	7208
1	27259854	6222	7261
1	27263720	6223	7261
1	27267598	6224	7155
1	27271418	6225	7261
1	27275290	6226	7208
1	27279153	6227	7208
1	27283028	6228	7261
1	27286908	6229	7208
1	27290788	6230	7261
1	27294653	6231	7208
1	27298479	6232	7208
1	27302338	6233	7155
1	27306152	6234	7208
1	27310017	6235	7155
1	27313834	6236	7102
1	27317664	6237	7208
1	27321488	6238	7102
1	27325334	6239	7208
1	27329156	6240	7155
1	27333018	6241	7208
1	27336870	6242	7155
1	27340693	6243	7208
1	27344536	6244	7102
1	27348331	6245	7102
1	27352159	6246	7155
1	27355979	6247	7155
1	27359806	6248	7102
1	27363610	6249	7155
1	27367444	6250	7102
1	27371256	6251	7102
1	27375082	6252	7208
1	27378904	6253	7102
1	27382719	6254	7155
1	27386541	6255	7102
1	27390363	6256	7155
1	27394190	6257	7155
1	27398002	6258	7102
1	27401813	6259	7102
1	27405618	6260	7102
1	27409417	6261	7049
1	27413199	6262	7155
1	27417017	6263	7049
1	27420810	6264	7102
1	27424650	6265	7155
1	27428510	6266	7208
1	27432363	6267	7208
1	27436197	6268	7155
1	27440035	6269	7155
1	27443873	6270	7155
1	27447697	6271	7155
1	27451530	6272	7208
1	27455370	6273	7155
1	27459192	6274	7155
1	27463041	6275	7155
1	27466901	6276	7208
1	27470721	6277	7155
1	27474552	6278	7155
1	27478393	6279	7208
1	27482207	6280	7102
1	27486034	6281	7102
1	27489881	6282	7208
1	27493733	6283	7208
1	27497545	6284	7102
1	27501392	6285	7261
1	27505245	6286	7155
1	27509106	6287	7261
1	27513000	6288	7208
1	27516856	6289	7208
1	27520713	6290	7261
1	27524579	6291	7208
1	27528444	6292	7261
1	27532276	6293	7102
1	27536132	6294	7208
1	27539999	6295	7261
1	27543906	6296	7314
1	27547793	6297	7208
1	27551690	6298	7314
1	27555592	6299	7314
1	27559469	6300	7261
1	27563348	6301	7261
1	27567291	6302	7367
1	27571202	6303	7367
1	27575130	6304	7314
1	27579050	6305	7367
1	27582978	6306	7261
1	27586869	6307	7367
1	27590789	6308	7314
1	27594728	6309	7367
1	27598647	6310	7314
1	27602555	6311	7314
1	27606447	6312	7314
1	27610388	6313	7367
1	27614311	6314	7261
1	27618169	6315	7261
1	27622061	6316	7314
1	27625949	6317	7261
1	27629798	6318	7261
1	27633689	6319	7208
1	27637533	6320	7208
1	27641425	6321	7261
1	27645306	6322	7261
1	27649191	6323	7261
1	27653075	6324	7261
1	27656961	6325	7261
1	27660831	6326	7261
1	27664729	6327	7261
1	27668594	6328	7261
1	27672520	6329	7314
1	27676403	6330	7261
1	27680310	6331	7367
1	27684237	6332	7314
1	27688131	6333	7314
1	27692045	6334	7314
1	27695941	6335	7314
1	27699878	6336	7367
1	27703795	6337	7261
1	27707666	6338	7261
1	27711593	6339	7367
1	27715524	6340	7367
1	27719467	6341	7367
1	27723378	6342	7314
1	27727265	6343	7314
1	27731212	6344	7314
1	27735118	6345	7314
1	27739040	6346	7367
1	27742929	6347	7261
1	27746856	6348	7367
1	27750771	6349	7367
1	27754712	6350	7314
1	27758631	6351	7367
1	27762583	6352	7314
1	27766535	6353	7420
1	27770465	6354	7473
1	27774434	6355	7314
1	27778370	6356	7420
1	27782318	6357	7420
1	27786225	6358	7261
1	27790189	6359	7420
1	27794129	6360	7473
1	27798051	6361	7314
1	27802021	6362	7367
1	27805968	6363	7420
1	27809921	6364	7420
1	27813859	6365	7367
1	27817742	6366	7261
1	27821635	6367	7261
1	27825533	6368	7314
1	27829426	6369	7314
1	27833321	6370	7208
1	27837168	6371	7208
1	27841039	6372	7208
1	27844919	6373	7314
1	27848853	6374	7314
1	27852775	6375	7367
1	27856681	6376	7314
1	27860582	6377	7314
1	27864474	6378	7208
1	27868377	6379	7367
1	27872316	6380	7367
1	27876208	6381	7208
1	27880114	6382	7367
1	27884023	6383	7314
1	27887943	6384	7314
1	27891853	6385	7314
1	27895783	6386	7367
1	27899661	6387	7208
1	27903582	6388	7367
1	27907474	6389	7261
1	27911357	6390	7261
1	27915248	6391	7314
1	27919176	6392	7367
1	27923072	6393	7314
1	27926931	6394	7155
1	27930774	6395	7155
1	27934640	6396	7261
1	27938494	6397	7208
1	27942355	6398	7261
1	27946184	6399	7049
1	27950028	6400	7208
1	27953928	6401	7367
1	27957863	6402	7367
1	27961723	6403	7155
1	27965616	6404	7261
1	27969500	6405	7314
1	27973410	6406	7261
1	27977311	6407	7367
1	27981213	6408	7208
1	27985083	6409	7261
1	27988941	6410	7261
1	27992831	6411	7261
1	27996662	6412	7208
1	28000554	6413	7155
1	28004403	6414	7261
1	28008270	6415	7261
1	28012132	6416	7155
1	28016016	6417	7261
1	28019895	6418	7314
1	28023787	6419	7208
1	28027627	6420	7261
1	28031539	6421	7261
1	28035442	6422	7367
1	28039359	6423	7314
1	28043252	6424	7314
1	28047186	6425	7314
1	28051086	6426	7261
1	28054955	6427	7261
1	28058870	6428	7314
1	28062794	6429	7367
1	28066713	6430	7314
1	28070636	6431	7367
1	28074560	6432	7314
1	28078467	6433	7314
1	28082372	6434	7314
1	28086267	6435	7314
1	28090181	6436	7208
1	28094036	6437	7261
1	28097893	6438	7208
1	28101782	6439	7261
1	28105696	6440	7314
1	28109593	6441	7367
1	28113459	6442	7155
1	28117324	6443	7314
1	28121241	6444	7314
1	28125157	6445	7314
1	28129080	6446	7367
1	28132943	6447	7208
1	28136857	6448	7367
1	28140742	6449	7155
1	28144571	6450	7208
1	28148467	6451	7261
1	28152353	6452	7314
1	28156248	6453	7208
1	28160113	6454	7314
1	28163978	6455	7208
1	28167850	6456	7261
1	28171783	6457	7314
1	28175687	6458	7314
1	28179596	6459	7261
1	28183485	6460	7314
1	28187356	6461	7208
1	28191245	6462	7314
1	28195106	6463	7208
1	28198984	6464	7261
1	28202916	6465	7367
1	28206826	6466	7261
1	28210752	6467	7420
1	28214697	6468	7367
1	28218636	6469	7367
1	28222542	6470	7314
1	28226485	6471	7420
1	28230436	6472	7367
1	28234375	6473	7367
1	28238275	6474	7314
1	28242221	6475	7314
1	28246135	6476	7420
1	28250147	6477	7526
1	28254147	6478	7473
1	28258089	6479	7314
1	28262012	6480	7420
1	28265954	6481	7261
1	28269846	6482	7420
1	28273831	6483	7420
1	28277769	6484	7367
1	28281742	6485	7473
1	28285695	6486	7420
1	28289588	6487	7261
1	28293507	6488	7314
1	28297429	6489	7367
1	28301402	6490	7420
1	28305336	6491	7367
1	28309281	6492	7420
1	28313197	6493	7367
1	28317127	6494	7314
1	28321047	6495	7367
1	28324958	6496	7261
1	28328856	6497	7208
1	28332685	6498	7261
1	28336518	6499	7155
1	28340364	6500	7155
1	28344189	6501	7102
1	28347983	6502	7102
1	28351822	6503	7155
1	28355632	6504	7102
1	28359444	6505	7102
1	28363307	6506	7208
1	28367122	6507	7155
1	28370955	6508	7208
1	28374821	6509	7155
1	28378648	6510	7208
1	28382512	6511	7155
1	28386313	6512	7155
1	28390131	6513	7102
1	28393981	6514	7155
1	28397830	6515	7261
1	28401687	6516	7155
1	28405535	6517	7261
1	28409386	6518	7102
1	28413241	6519	7208
1	28417064	6520	7155
1	28420917	6521	7261
1	28424753	6522	7102
1	28428576	6523	7155
1	28432410	6524	7155
1	28436254	6525	7208
1	28440124	6526	7208
1	28444002	6527	7261
1	28447874	6528	7261
1	28451734	6529	7261
1	28455583	6530	7102
1	28459427	6531	7155
1	28463254	6532	7261
1	28467159	6533	7261
1	28471045	6534	7208
1	28474938	6535	7367
1	28478881	6536	7314
1	28482793	6537	7314
1	28486709	6538	7367
1	28490643	6539	7420
1	28494585	6540	7367
1	28498486	6541	7208
1	28502375	6542	7261
1	28506270	6543	7261
1	28510145	6544	7314
1	28514033	6545	7314
1	28517984	6546	7367
1	28521881	6547	7314
1	28525796	6548	7314
1	28529684	6549	7261
1	28533546	6550	7261
1	28537426	6551	7155
1	28541288	6552	7261
1	28545129	6553	7155
1	28549031	6554	7314
1	28552897	6555	7155
1	28556732	6556	7261
1	28560625	6557	7261
1	28564478	6558	7261
1	28568363	6559	7208
1	28572225	6560	7208
1	28576100	6561	7208
1	28579988	6562	7314
1	28583871	6563	7261
1	28587755	6564	7155
1	28591613	6565	7261
1	28595475	6566	7208
1	28599358	6567	7314
1	28603270	6568	7314
1	28607127	6569	7208
1	28610991	6570	7208
1	28614858	6571	7261
1	28618755	6572	7261
1	28622621	6573	7261
1	28626470	6574	7155
1	28630294	6575	7102
1	28634107	6576	7208
1	28637962	6577	7155
1	28641805	6578	7208
1	28645674	6579	7208
1	28649498	6580	7155
1	28653359	6581	7155
1	28657192	6582	7208
1	28661044	6583	7208
1	28664890	6584	7208
1	28668766	6585	7208
1	28672637	6586	7261
1	28676535	6587	7261
1	28680375	6588	7208
1	28684245	6589	7261
1	28688107	6590	7208
1	28691953	6591	7155
1	28695820	6592	7261
1	28699680	6593	7261
1	28703511	6594	7049
1	28707323	6595	7208
1	28711179	6596	7155
1	28715028	6597	7155
1	28718870	6598	7208
1	28722708	6599	7155
1	28726565	6600	7208
1	28730380	6601	7102
1	28734182	6602	7049
1	28737971	6603	7155
1	28741820	6604	7155
1	28745655	6605	7208
1	28749485	6606	7102
1	28753346	6607	7261
1	28757227	6608	7208
1	28761071	6609	7261
1	28764942	6610	7155
1	28768782	6611	7261
1	28772680	6612	7261
1	28776558	6613	7261
1	28780426	6614	7208
1	28784248	6615	7208
1	28788132	6616	7208
1	28791994	6617	7155
1	28795839	6618	7208
1	28799667	6619	7155
1	28803497	6620	7155
1	28807321	6621	7155
1	28811139	6622	7102
1	28814961	6623	7155
1	28818819	6624	7208
1	28822676	6625	7208
1	28826544	6626	7261
1	28830411	6627	7155
1	28834252	6628	7261
1	28838109	6629	7155
1	28841947	6630	7208
1	28845795	6631	7208
1	28849691	6632	7261
1	28853563	6633	7261
1	28857399	6634	7155
1	28861272	6635	7208
1	28865130	6636	7261
1	28868979	6637	7155
1	28872808	6638	7155
1	28876640	6639	7208
1	28880460	6640	7049
1	28884308	6641	7208
1	28888116	6642	7049
1	28891926	6643	7155
1	28895760	6644	7208
1	28899614	6645	7208
1	28903450	6646	7102
1	28907288	6647	7208
1	28911152	6648	7208
1	28915010	6649	7208
1	28918867	6650	7208
1	28922718	6651	7208
1	28926577	6652	7208
1	28930420	6653	7155
1	28934264	6654	7208
1	28938118	6655	7208
1	28941976	6656	7261
1	28945832	6657	7208
1	28949677	6658	7102
1	28953546	6659	7208
1	28957396	6660	7314
1	28961265	6661	7208
1	28965164	6662	7261
1	28969055	6663	7261
1	28972907	6664	7208
1	28976783	6665	7208
1	28980630	6666	7208
1	28984485	6667	7208
1	28988299	6668	7155
1	28992146	6669	7102
1	28995910	6670	7049
1	28999653	6671	7049
1	29003427	6672	6996
1	29007245	6673	7102
1	29011037	6674	7102
1	29014839	6675	7049
1	29018685	6676	7208
1	29022504	6677	7155
1	29026352	6678	7155
1	29030214	6679	7208
1	29034065	6680	7261
1	29037949	6681	7261
1	29041864	6682	7314
1	29045770	6683	7208
1	29049667	6684	7367
1	29053598	6685	7314
1	29057504	6686	7420
1	29061405	6687	7261
1	29065340	6688	7314
1	29069265	6689	7420
1	29073190	6690	7314
1	29077181	6691	7473
1	29081107	6692	7420
1	29085012	6693	7261
1	29088901	6694	7261
1	29092811	6695	7367
1	29096785	6696	7367
1	29100735	6697	7473
1	29104604	6698	7102
1	29108493	6699	7367
1	29112429	6700	7367
1	29116324	6701	7261
1	29120216	6702	7261
1	29124090	6703	7261
1	29128000	6704	7314
1	29131912	6705	7314
1	29135856	6706	7367
1	29139766	6707	7367
1	29143712	6708	7420
1	29147666	6709	7367
1	29151621	6710	7367
1	29155569	6711	7420
1	29159474	6712	7261
1	29163405	6713	7420
1	29167365	6714	7420
1	29171322	6715	7420
1	29175255	6716	7314
1	29179207	6717	7420
1	29183122	6718	7314
1	29187043	6719	7367
1	29190974	6720	7367
1	29194928	6721	7420
1	29198908	6722	7420
1	29202811	6723	7314
1	29206765	6724	7420
1	29210717	6725	7420
1	29214694	6726	7420
1	29218659	6727	7420
1	29222601	6728	7420
1	29226599	6729	7473
1	29230539	6730	7420
1	29234505	6731	7367
1	29238460	6732	7473
1	29242438	6733	7420
1	29246428	6734	7526
1	29250392	6735	7420
1	29254371	6736	7473
1	29258366	6737	7473
1	29262394	6738	7526
1	29266400	6739	7526
1	29270352	6740	7420
1	29274311	6741	7314
1	29278255	6742	7420
1	29282233	6743	7473
1	29286248	6744	7579
1	29290274	6745	7579
1	29294203	6746	7261
1	29298152	6747	7420
1	29302116	6748	7473
1	29306097	6749	7420
1	29310088	6750	7526
1	29314068	6751	7367
1	29318024	6752	7473
1	29321981	6753	7367
1	29325878	6754	7367
1	29329819	6755	7314
1	29333722	6756	7367
1	29337656	6757	7314
1	29341612	6758	7420
1	29345530	6759	7314
1	29349408	6760	7208
1	29353320	6761	7367
1	29357211	6762	7314
1	29361138	6763	7314
1	29365095	6764	7420
1	29369017	6765	7314
1	29372919	6766	7367
1	29376866	6767	7367
1	29380812	6768	7367
1	29384724	6769	7314
1	29388647	6770	7420
1	29392603	6771	7314
1	29396545	6772	7473
1	29400469	6773	7261
1	29404396	6774	7420
1	29408340	6775	7367
1	29412282	6776	7314
1	29416154	6777	7314
1	29420117	6778	7367
1	29424019	6779	7314
1	29427933	6780	7314
1	29431828	6781	7314
1	29435747	6782	7314
1	29439718	6783	7420
1	29443706	6784	7526
1	29447665	6785	7367
1	29451602	6786	7420
1	29455583	6787	7473
1	29459573	6788	7420
1	29463482	6789	7367
1	29467420	6790	7314
1	29471388	6791	7473
1	29475339	6792	7420
1	29479312	6793	7420
1	29483248	6794	7420
1	29487185	6795	7314
1	29491123	6796	7367
1	29495053	6797	7367
1	29499017	6798	7420
1	29502961	6799	7420
1	29506888	6800	7261
1	29510856	6801	7473
1	29514820	6802	7473
1	29518769	6803	7420
1	29522713	6804	7367
1	29526630	6805	7314
1	29530514	6806	7261
1	29534415	6807	7314
1	29538320	6808	7261
1	29542188	6809	7208
1	29546044	6810	7208
1	29549898	6811	7208
1	29553762	6812	7208
1	29557637	6813	7261
1	29561509	6814	7261
1	29565405	6815	7261
1	29569271	6816	7314
1	29573129	6817	7208
1	29577037	6818	7261
1	29580936	6819	7314
1	29584808	6820	7261
1	29588725	6821	7261
1	29592621	6822	7314
1	29596522	6823	7314
1	29600428	6824	7314
1	29604307	6825	7208
1	29608191	6826	7261
1	29612125	6827	7367
1	29616048	6828	7367
1	29620011	6829	7420
1	29623943	6830	7420
1	29627871	6831	7314
1	29631853	6832	7420
1	29635800	6833	7473
1	29639785	6834	7420
1	29643734	6835	7420
1	29647682	6836	7314
1	29651592	6837	7420
1	29655561	6838	7314
1	29659467	6839	7367
1	29663401	6840	7367
1	29667291	6841	7208
1	29671201	6842	7367
1	29675132	6843	7367
1	29679089	6844	7420
1	29683033	6845	7367
1	29687009	6846	7473
1	29690985	6847	7473
1	29694970	6848	7420
1	29698943	6849	7473
1	29702934	6850	7473
1	29706903	6851	7367
1	29710845	6852	7473
1	29714820	6853	7420
1	29718780	6854	7420
1	29722735	6855	7420
1	29726711	6856	7473
1	29730704	6857	7473
1	29734656	6858	7367
1	29738600	6859	7367
1	29742523	6860	7367
1	29746483	6861	7420
1	29750453	6862	7420
1	29754401	6863	7420
1	29758341	6864	7367
1	29762279	6865	7367
1	29766265	6866	7473
1	29770188	6867	7367
1	29774135	6868	7367
1	29778051	6869	7367
1	29781968	6870	7261
1	29785920	6871	7473
1	29789919	6872	7526
1	29793892	6873	7473
1	29797888	6874	7420
1	29801841	6875	7367
1	29805792	6876	7367
1	29809801	6877	7632
1	29813851	6878	7632
1	29817916	6879	7579
1	29821948	6880	7579
1	29825982	6881	7579
1	29830005	6882	7579
1	29834043	6883	7526
1	29838071	6884	7579
1	29842161	6885	7632
1	29846219	6886	7579
1	29850262	6887	7632
1	29854302	6888	7579
1	29858328	6889	7473
1	29862338	6890	7579
1	29866385	6891	7579
1	29870399	6892	7526
1	29874425	6893	7526
1	29878415	6894	7526
1	29882441	6895	7526
1	29886437	6896	7473
1	29890396	6897	7473
1	29894375	6898	7473
1	29898397	6899	7526
1	29902455	6900	7526
1	29906459	6901	7579
1	29910474	6902	7473
1	29914430	6903	7473
1	29918407	6904	7420
1	29922358	6905	7367
1	29926351	6906	7526
1	29930357	6907	7473
1	29934300	6908	7473
1	29938269	6909	7314
1	29942253	6910	7526
1	29946241	6911	7526
1	29950225	6912	7420
1	29954204	6913	7473
1	29958211	6914	7473
1	29962203	6915	7526
1	29966195	6916	7420
1	29970152	6917	7420
1	29974148	6918	7526
1	29978143	6919	7420
1	29982163	6920	7579
1	29986180	6921	7579
1	29990163	6922	7420
1	29994197	6923	7579
1	29998184	6924	7473
1	30002159	6925	7420
1	30006165	6926	7473
1	30010158	6927	7579
1	30014167	6928	7526
1	30018196	6929	7579
1	30022212	6930	7526
1	30026265	6931	7526
1	30030266	6932	7473
1	30034195	6933	7473
1	30038155	6934	7367
1	30042130	6935	7367
1	30046113	6936	7579
1	30050095	6937	7420
1	30054102	6938	7526
1	30058105	6939	7473
1	30062074	6940	7473
1	30066062	6941	7420
1	30070030	6942	7420
1	30073956	6943	7367
1	30077857	6944	7314
1	30081760	6945	7314
1	30085694	6946	7314
1	30089607	6947	7367
1	30093508	6948	7314
1	30097413	6949	7261
1	30101319	6950	7314
1	30105271	6951	7420
1	30109169	6952	7261
1	30113059	6953	7314
1	30116928	6954	7261
1	30120842	6955	7314
1	30124728	6956	7261
1	30128628	6957	7261
1	30132551	6958	7314
1	30136441	6959	7314
1	30140310	6960	7314
1	30144198	6961	7155
1	30148064	6962	7261
1	30151950	6963	7261
1	30155876	6964	7420
1	30159798	6965	7314
1	30163719	6966	7367
1	30167661	6967	7367
1	30171610	6968	7367
1	30175489	6969	7208
1	30179372	6970	7314
1	30183283	6971	7314
1	30187172	6972	7261
1	30191104	6973	7314
1	30194956	6974	7208
1	30198844	6975	7314
1	30202753	6976	7261
1	30206660	6977	7314
1	30210523	6978	7261
1	30214392	6979	7155
1	30218279	6980	7367
1	30222222	6981	7367
1	30226119	6982	7314
1	30229991	6983	7208
1	30233859	6984	7208
1	30237749	6985	7261
1	30241636	6986	7261
1	30245534	6987	7261
1	30249390	6988	7261
1	30253271	6989	7261
1	30257145	6990	7208
1	30260982	6991	7155
1	30264831	6992	7208
1	30268703	6993	7208
1	30272544	6994	7208
1	30276445	6995	7261
1	30280321	6996	7314
1	30284227	6997	7314
1	30288155	6998	7314
1	30292031	6999	7261
1	30295920	7000	7261
1	30299811	7001	7314
1	30303678	7002	7155
1	30307563	7003	7261
1	30311420	7004	7261
1	30315299	7005	7261
1	30319148	7006	7155
1	30322990	7007	7155
1	30326857	7008	7314
1	30330755	7009	7208
1	30334634	7010	7314
1	30338512	7011	7208
1	30342384	7012	7261
1	30346251	7013	7261
1	30350128	7014	7155
1	30353968	7015	7208
1	30357872	7016	7314
1	30361747	7017	7261
1	30365633	7018	7261
1	30369509	7019	7261
1	30373423	7020	7314
1	30377315	7021	7261
1	30381198	7022	7261
1	30385066	7023	7261
1	30388884	7024	7102
1	30392706	7025	7155
1	30396597	7026	7261
1	30400466	7027	7261
1	30404357	7028	7208
1	30408217	7029	7314
1	30412139	7030	7261
1	30416002	7031	7208
1	30419918	7032	7367
1	30423832	7033	7367
1	30427728	7034	7261
1	30431640	7035	7261
1	30435510	7036	7314
1	30439482	7037	7420
1	30443391	7038	7314
1	30447374	7039	7473
1	30451373	7040	7473
1	30455336	7041	7473
1	30459274	7042	7314
1	30463247	7043	7473
1	30467203	7044	7367
1	30471173	7045	7526
1	30475212	7046	7526
1	30479245	7047	7579
1	30483247	7048	7526
1	30487256	7049	7526
1	30491273	7050	7526
1	30495255	7051	7473
1	30499251	7052	7473
1	30503219	7053	7420
1	30507205	7054	7420
1	30511139	7055	7420
1	30515105	7056	7420
1	30519064	7057	7420
1	30523012	7058	7420
1	30527013	7059	7473
1	30531012	7060	7526
1	30535039	7061	7473
1	30539032	7062	7526
1	30543014	7063	7473
1	30546972	7064	7420
1	30550975	7065	7473
1	30554962	7066	7526
1	30558939	7067	7473
1	30562915	7068	7367
1	30566867	7069	7420
1	30570864	7070	7526
1	30574865	7071	7473
1	30578832	7072	7420
1	30582776	7073	7473
1	30586716	7074	7367
1	30590675	7075	7367
1	30594603	7076	7367
1	30598532	7077	7367
1	30602469	7078	7314
1	30606382	7079	7314
1	30610304	7080	7367
1	30614226	7081	7367
1	30618161	7082	7314
1	30622076	7083	7367
1	30626025	7084	7367
1	30629971	7085	7420
1	30633904	7086	7367
1	30637832	7087	7367
1	30641756	7088	7367
1	30645712	7089	7367
1	30649675	7090	7420
1	30653608	7091	7367
1	30657560	7092	7367
1	30661477	7093	7473
1	30665459	7094	7314
1	30669391	7095	7420
1	30673316	7096	7367
1	30677313	7097	7526
1	30681335	7098	7420
1	30685261	7099	7314
1	30689214	7100	7473
1	30693212	7101	7579
1	30697243	7102	7526
1	30701253	7103	7473
1	30705225	7104	7526
1	30709238	7105	7473
1	30713240	7106	7473
1	30717203	7107	7526
1	30721208	7108	7420
1	30725185	7109	7420
1	30729155	7110	7420
1	30733091	7111	7473
1	30737003	7112	7208
1	30740881	7113	7314
1	30744857	7114	7473
1	30748787	7115	7314
1	30752700	7116	7261
1	30756583	7117	7314
1	30760522	7118	7367
1	30764416	7119	7208
1	30768324	7120	7367
1	30772223	7121	7261
1	30776121	7122	7261
1	30780047	7123	7367
1	30783990	7124	7367
1	30787956	7125	7526
1	30791942	7126	7420
1	30795903	7127	7473
1	30799852	7128	7367
1	30803789	7129	7420
1	30807795	7130	7420
1	30811788	7131	7526
1	30815782	7132	7526
1	30819802	7133	7526
1	30823791	7134	7420
1	30827787	7135	7526
1	30831847	7136	7579
1	30835868	7137	7579
1	30839917	7138	7579
1	30843933	7139	7526
1	30847939	7140	7526
1	30851918	7141	7473
1	30855953	7142	7579
1	30860022	7143	7579
1	30863997	7144	7579
1	30868011	7145	7367
1	30872010	7146	7579
1	30876009	7147	7473
1	30879989	7148	7473
1	30883985	7149	7473
1	30887959	7150	7473
1	30891940	7151	7420
1	30895911	7152	7473
1	30899841	7153	7367
1	30903841	7154	7473
1	30907811	7155	7473
1	30911808	7156	7473
1	30915819	7157	7526
1	30919808	7158	7526
1	30923836	7159	7579
1	30927866	7160	7473
1	30931832	7161	7473
1	30935832	7162	7473
1	30939807	7163	7473
1	30943859	7164	7579
1	30947919	7165	7579
1	30951935	7166	7526
1	30955975	7167	7579
1	30960002	7168	7579
1	30964020	7169	7526
1	30968029	7170	7579
1	30972051	7171	7473
1	30976043	7172	7579
1	30980041	7173	7420
1	30984017	7174	7367
1	30987999	7175	7473
1	30991992	7176	7526
1	30995989	7177	7579
1	31000007	7178	7526
1	31004008	7179	7526
1	31008025	7180	7526
1	31012021	7181	7367
1	31015941	7182	7420
1	31019978	7183	7579
1	31024012	7184	7632
1	31028091	7185	7579
1	31032132	7186	7579
1	31036167	7187	7632
1	31040216	7188	7526
1	31044235	7189	7579
1	31048297	7190	7632
1	31052291	7191	7420
1	31056278	7192	7526
1	31060314	7193	7579
1	31064353	7194	7579
1	31068346	7195	7526
1	31072366	7196	7526
1	31076381	7197	7526
1	31080377	7198	7473
1	31084392	7199	7526
1	31088403	7200	7526
1	31092416	7201	7526
1	31096429	7202	7473
1	31100435	7203	7579
1	31104445	7204	7473
1	31108431	7205	7579
1	31112483	7206	7579
1	31116469	7207	7473
1	31120500	7208	7526
1	31124527	7209	7579
1	31128541	7210	7473
1	31132548	7211	7473
1	31136566	7212	7632
1	31140606	7213	7526
1	31144632	7214	7632
1	31148688	7215	7579
1	31152739	7216	7579
1	31156814	7217	7738
1	31160879	7218	7579
1	31164931	7219	7632
1	31168975	7220	7526
1	31173002	7221	7579
1	31177031	7222	7526
1	31181099	7223	7632
1	31185195	7224	7738
1	31189254	7225	7579
1	31193258	7226	7632
1	31197248	7227	7367
1	31201226	7228	7526
1	31205222	7229	7473
1	31209303	7230	7685
1	31213318	7231	7526
1	31217347	7232	7526
1	31221390	7233	7632
1	31225453	7234	7579
1	31229506	7235	7579
1	31233522	7236	7526
1	31237513	7237	7526
1	31241568	7238	7632
1	31245600	7239	7473
1	31249611	7240	7632
1	31253615	7241	7526
1	31257567	7242	7367
1	31261543	7243	7420
1	31265508	7244	7420
1	31269461	7245	7420