version 2
run AimdCC-2-20100909-13:59:39-1788
attr configname AimdCC
attr datetime 20100909-13:59:39
attr delay 500ms
attr experiment AimdCC
attr inifile D:/Developement/Oversim2/multic/simulations/omnetpp.ini
attr iterationvars $delay=500ms
attr iterationvars2 "$delay=500ms, $repetition=0"
attr measurement $delay=500ms
attr network oversim.underlay.simpleunderlay.SimpleUnderlayNetwork
attr processid 1788
attr repetition 0
attr replication #0
attr resultdir results
attr runnumber 2
attr seedset 2

vector 1  SimpleUnderlayNetwork.globalObserver.globalStatistics  incoming_bytes  ETV
vector 2  SimpleUnderlayNetwork.globalObserver.globalStatistics  drops  ETV
vector 3  SimpleUnderlayNetwork.globalObserver.globalStatistics  delayed_acks  ETV
vector 4  SimpleUnderlayNetwork.globalObserver.globalStatistics  timetotimeouts  ETV
vector 5  SimpleUnderlayNetwork.globalObserver.globalStatistics  9rateOf1To0  ETV
vector 6  SimpleUnderlayNetwork.globalObserver.globalStatistics  max9RateOf1To0  ETV
vector 7  SimpleUnderlayNetwork.globalObserver.globalStatistics  9rateOf1To1  ETV
vector 8  SimpleUnderlayNetwork.globalObserver.globalStatistics  max9RateOf1To1  ETV
vector 9  SimpleUnderlayNetwork.globalObserver.globalStatistics  9rateOf1To2  ETV
vector 10  SimpleUnderlayNetwork.globalObserver.globalStatistics  max9RateOf1To2  ETV
vector 11  SimpleUnderlayNetwork.globalObserver.globalStatistics  9rateOf1To3  ETV
vector 12  SimpleUnderlayNetwork.globalObserver.globalStatistics  max9RateOf1To3  ETV
vector 13  SimpleUnderlayNetwork.globalObserver.globalStatistics  9rateOf1To4  ETV
vector 14  SimpleUnderlayNetwork.globalObserver.globalStatistics  max9RateOf1To4  ETV
vector 15  SimpleUnderlayNetwork.globalObserver.globalStatistics  9rateOf1To5  ETV
vector 16  SimpleUnderlayNetwork.globalObserver.globalStatistics  max9RateOf1To5  ETV
vector 17  SimpleUnderlayNetwork.globalObserver.globalStatistics  9rateOf1To6  ETV
vector 18  SimpleUnderlayNetwork.globalObserver.globalStatistics  max9RateOf1To6  ETV
vector 19  SimpleUnderlayNetwork.globalObserver.globalStatistics  9rateOf1To7  ETV
vector 20  SimpleUnderlayNetwork.globalObserver.globalStatistics  max9RateOf1To7  ETV
vector 21  SimpleUnderlayNetwork.globalObserver.globalStatistics  9rateOf1To8  ETV
vector 22  SimpleUnderlayNetwork.globalObserver.globalStatistics  max9RateOf1To8  ETV
vector 23  SimpleUnderlayNetwork.globalObserver.globalStatistics  9rateOf1To9  ETV
vector 24  SimpleUnderlayNetwork.globalObserver.globalStatistics  max9RateOf1To9  ETV
vector 25  SimpleUnderlayNetwork.globalObserver.globalStatistics  1rate  ETV
vector 26  SimpleUnderlayNetwork.globalObserver.globalStatistics  max2Rate  ETV
vector 27  SimpleUnderlayNetwork.globalObserver.globalStatistics  "GlobalNodeList: Number of nodes"  ETV
vector 28  SimpleUnderlayNetwork.globalObserver.globalStatistics  "GlobalNodeList: Number of bootstrapped malicious nodes"  ETV
1	20654303	6018	6466
1	20657786	6019	6625
1	20661197	6020	6201
1	20664623	6021	6148
1	20668098	6022	6519
1	20671523	6023	6466
1	20674959	6024	6042
1	20678437	6025	6784
1	20681832	6026	6095
1	20685315	6027	6360
1	20688750	6028	6466
1	20692188	6029	6413
1	20695597	6030	6148
1	20699068	6031	6466
1	20702519	6032	6466
1	20705940	6033	6148
1	20709379	6034	6466
1	20712817	6035	6307
1	20716250	6036	6466
1	20719680	6037	6201
1	20723138	6038	6360
1	20726566	6039	6413
1	20729979	6040	6201
1	20733455	6041	6413
1	20736888	6042	6360
1	20740352	6043	6519
1	20743761	6044	6254
1	20747222	6045	6413
1	20750670	6046	6360
1	20754123	6047	6360
1	20757525	6048	6360
1	20761023	6049	6572
1	20764419	6050	6148
1	20767880	6051	6254
1	20771301	6052	6360
1	20774758	6053	6413
1	20778209	6054	6413
1	20781639	6055	6360
1	20785045	6056	6307
1	20788520	6057	6519
1	20791980	6058	6360
1	20795401	6059	6254
1	20798829	6060	6307
1	20802292	6061	6413
1	20805763	6062	6572
1	20809169	6063	6148
1	20812594	6064	6413
1	20816034	6065	6307
1	20819457	6066	6201
1	20822920	6067	6625
1	20826383	6068	6254
1	20829802	6069	6519
1	20833230	6070	6201
1	20836671	6071	6466
1	20840110	6072	6095
1	20843564	6073	6519
1	20846994	6074	6307
1	20850452	6075	6466
1	20853896	6076	6360
1	20857349	6077	6307
1	20860785	6078	6360
1	20864248	6079	6678
1	20867670	6080	5989
1	20871127	6081	6678
1	20874567	6082	6254
1	20877996	6083	6254
1	20881453	6084	6572
1	20884857	6085	6148
1	20888292	6086	6254
1	20891738	6087	6413
1	20895184	6088	6519
1	20898629	6089	6307
1	20902101	6090	6360
1	20905523	6091	6307
1	20908957	6092	6413
1	20912393	6093	6360
1	20915845	6094	6095
1	20919287	6095	6678
1	20922723	6096	6095
1	20926151	6097	6254
1	20929582	6098	6519
1	20933010	6099	6413
1	20936468	6100	6254
1	20939935	6101	6625
1	20943372	6102	6254
1	20946798	6103	6307
1	20950232	6104	6360
1	20953698	6105	6307
1	20957141	6106	6466
1	20960588	6107	6307
1	20964022	6108	6413
1	20967473	6109	6254
1	20970907	6110	6572
1	20974361	6111	6307
1	20977783	6112	6307
1	20981205	6113	6148
1	20984665	6114	6625
1	20988097	6115	6254
1	20991541	6116	6307
1	20994971	6117	6360
1	20998416	6118	6360
1	21001865	6119	6360
1	21005316	6120	6413
1	21008728	6121	6466
1	21012178	6122	6148
1	21015619	6123	6466
1	21019078	6124	6466
1	21022487	6125	6148
1	21025949	6126	6572
1	21029385	6127	6307
1	21032840	6128	6413
1	21036288	6129	6466
1	21039723	6130	6042
1	21043158	6131	6466
1	21046594	6132	6360
1	21050055	6133	6625
1	21053490	6134	6148
1	21056929	6135	6519
1	21060368	6136	6254
1	21063821	6137	6519
1	21067232	6138	6095
1	21070662	6139	6519
1	21074134	6140	6042
1	21077578	6141	6572
1	21081002	6142	6254
1	21084441	6143	6519
1	21087886	6144	6254
1	21091324	6145	6254
1	21094772	6146	6519
1	21098203	6147	6201
1	21101680	6148	6572
1	21105111	6149	6201
1	21108511	6150	6307
1	21111990	6151	6678
1	21115413	6152	6095
1	21118870	6153	6519
1	21122322	6154	6625
1	21125737	6155	5989
1	21129164	6156	6360
1	21132605	6157	6466
1	21136066	6158	6413
1	21139520	6159	6201
1	21142946	6160	6572
1	21146413	6161	6201
1	21149798	6162	6413
1	21153246	6163	6466
1	21156701	6164	6201
1	21160129	6165	6148
1	21163595	6166	6625
1	21167057	6167	6360
1	21170462	6168	5989
1	21173910	6169	6678
1	21177351	6170	6360
1	21180809	6171	6466
1	21184234	6172	6148
1	21187688	6173	6360
1	21191124	6174	6360
1	21194560	6175	6466
1	21198015	6176	6254
1	21201451	6177	6678
1	21204879	6178	6095
1	21208312	6179	6466
1	21211790	6180	6307
1	21215206	6181	6307
1	21218645	6182	6413
1	21222117	6183	6307
1	21225510	6184	6413
1	21228976	6185	6360
1	21232418	6186	6466
1	21235834	6187	6201
1	21239292	6188	6413
1	21242738	6189	6519
1	21246165	6190	6148
1	21249614	6191	6360
1	21253049	6192	6307
1	21256480	6193	6307
1	21259948	6194	6466
1	21263374	6195	6254
1	21266792	6196	6413
1	21270223	6197	6254
1	21273682	6198	6625
1	21277163	6199	6254
1	21280610	6200	6466
1	21284032	6201	6466
1	21287474	6202	6148
1	21290885	6203	6466
1	21294368	6204	6360
1	21297772	6205	6201
1	21301210	6206	6307
1	21304649	6207	6519
1	21308067	6208	6201
1	21311536	6209	6466
1	21314961	6210	6254
1	21318448	6211	6678
1	21321885	6212	6307
1	21325330	6213	6413
1	21328759	6214	5989
1	21332230	6215	6625
1	21335644	6216	6307
1	21339091	6217	6360
1	21342519	6218	6307
1	21345947	6219	6254
1	21349410	6220	6572
1	21352829	6221	6095
1	21356278	6222	6519
1	21359719	6223	6307
1	21363160	6224	6360
1	21366619	6225	6360
1	21370053	6226	6519
1	21373464	6227	6148
1	21376942	6228	6466
1	21380379	6229	6254
1	21383815	6230	6360
1	21387264	6231	6519
1	21390693	6232	6307
1	21394114	6233	6360
1	21397568	6234	6307
1	21401052	6235	6625
1	21404449	6236	6307
1	21407933	6237	6466
1	21411311	6238	5989
1	21414783	6239	6572
1	21418238	6240	6360
1	21421680	6241	6254
1	21425099	6242	6360
1	21428540	6243	6413
1	21431982	6244	6254
1	21435409	6245	6678
1	21438883	6246	6254
1	21442324	6247	6201
1	21445760	6248	6360
1	21449191	6249	6360
1	21452632	6250	6307
1	21456040	6251	6360
1	21459511	6252	6254
1	21462973	6253	6678
1	21466389	6254	6042
1	21469823	6255	6413
1	21473267	6256	6413
1	21476736	6257	6519
1	21480161	6258	6201
1	21483610	6259	6572
1	21487064	6260	6148
1	21490499	6261	6466
1	21493936	6262	6466
1	21497378	6263	6254
1	21500805	6264	6201
1	21504262	6265	6572
1	21507682	6266	6254
1	21511133	6267	6201
1	21514610	6268	6731
1	21518032	6269	6201
1	21521467	6270	6519
1	21524908	6271	6307
1	21528316	6272	6201
1	21531760	6273	6466
1	21535212	6274	6413
1	21538691	6275	6360
1	21542088	6276	6254
1	21545523	6277	6413
1	21549002	6278	6466
1	21552431	6279	6307
1	21555873	6280	6201
1	21559311	6281	6413
1	21562757	6282	6360
1	21566151	6283	6201
1	21569634	6284	6572
1	21573050	6285	6148
1	21576520	6286	6466
1	21579934	6287	6307
1	21583363	6288	6360
1	21586820	6289	6360
1	21590275	6290	6519
1	21593702	6291	6148
1	21597143	6292	6360
1	21600607	6293	6466
1	21604028	6294	6413
1	21607479	6295	6307
1	21610930	6296	6413
1	21614342	6297	6307
1	21617821	6298	6201
1	21621278	6299	6625
1	21624686	6300	6201
1	21628101	6301	6519
1	21631539	6302	6095
1	21635016	6303	6625
1	21638421	6304	6254
1	21641886	6305	6413
1	21645356	6306	6572
1	21648790	6307	6201
1	21652217	6308	6307
1	21655665	6309	6148
1	21659104	6310	6625
1	21662522	6311	6254
1	21665990	6312	6307
1	21669443	6313	6572
1	21672868	6314	6095
1	21676285	6315	6413
1	21679705	6316	6360
1	21683190	6317	6519
1	21686631	6318	6201
1	21690070	6319	6572
1	21693502	6320	6042
1	21696974	6321	6731
1	21700391	6322	6254
1	21703868	6323	6466
1	21707281	6324	6148
1	21710728	6325	6519
1	21714163	6326	6148
1	21717605	6327	6519
1	21721044	6328	6201
1	21724465	6329	6360
1	21727917	6330	6360
1	21731357	6331	6572
1	21734781	6332	6095
1	21738262	6333	6678
1	21741692	6334	6254
1	21745134	6335	6307
1	21748587	6336	6360
1	21751990	6337	6307
1	21755456	6338	6360
1	21758869	6339	6360
1	21762328	6340	6519
1	21765713	6341	6095
1	21769205	6342	6466
1	21772662	6343	6307
1	21776127	6344	6519
1	21779538	6345	6413
1	21783001	6346	6307
1	21786409	6347	6466
1	21789871	6348	6148
1	21793324	6349	6519
1	21796727	6350	6148
1	21800175	6351	6413
1	21803622	6352	6360
1	21807058	6353	6360
1	21810508	6354	6572
1	21813955	6355	6201
1	21817393	6356	6413
1	21820840	6357	6201
1	21824266	6358	6572
1	21827692	6359	6254
1	21831137	6360	6307
1	21834605	6361	6466
1	21838026	6362	6254
1	21841462	6363	6466
1	21844894	6364	6201
1	21848345	6365	6360
1	21851787	6366	6519
1	21855263	6367	6360
1	21858679	6368	6201
1	21862104	6369	6307
1	21865568	6370	6572
1	21869025	6371	6360
1	21872418	6372	6254
1	21875871	6373	6254
1	21879304	6374	6466
1	21882778	6375	6360
1	21886221	6376	6466
1	21889674	6377	6254
1	21893108	6378	6307
1	21896504	6379	6360
1	21899986	6380	6625
1	21903411	6381	6095
1	21906877	6382	6731
1	21910309	6383	6095
1	21913734	6384	6413
1	21917155	6385	6201
1	21920644	6386	6678
1	21924038	6387	6148
1	21927478	6388	6148
1	21930917	6389	6519
1	21934356	6390	6360
1	21937792	6391	6254
1	21941258	6392	6413
1	21944668	6393	6519
1	21948089	6394	6148
1	21951566	6395	6466
1	21955025	6396	6572
1	21958462	6397	5989
1	21961910	6398	6519
1	21965320	6399	6360
1	21968796	6400	6413
1	21972262	6401	6572
1	21975664	6402	6201
1	21979124	6403	6360
1	21982559	6404	6466
1	21985987	6405	6042
1	21989424	6406	6413
1	21992855	6407	6413
1	21996311	6408	6466
1	21999773	6409	6360
1	22003218	6410	6307
1	22006634	6411	6466
1	22010066	6412	6254
1	22013541	6413	6466
1	22016978	6414	6201
1	22020439	6415	6519
1	22023841	6416	6148
1	22027286	6417	6413
1	22030708	6418	6254
1	22034157	6419	6466
1	22037600	6420	6254
1	22041049	6421	6466
1	22044514	6422	6519
1	22047957	6423	6307
1	22051416	6424	6466
1	22054883	6425	6413
1	22058280	6426	6148
1	22061710	6427	6307
1	22065140	6428	6413
1	22068600	6429	6413
1	22072018	6430	6201
1	22075464	6431	6466
1	22078893	6432	6254
1	22082334	6433	6413
1	22085814	6434	6625
1	22089221	6435	6148
1	22092635	6436	6254
1	22096115	6437	6413
1	22099522	6438	6466
1	22102966	6439	6201
1	22106442	6440	6360
1	22109847	6441	6413
1	22113288	6442	6413
1	22116730	6443	6254
1	22120209	6444	6519
1	22123637	6445	6413
1	22127071	6446	6413
1	22130505	6447	5989
1	22133946	6448	6519
1	22137416	6449	6413
1	22140824	6450	6307
1	22144284	6451	6413
1	22147758	6452	6519
1	22151199	6453	6254
1	22154614	6454	6360
1	22158053	6455	6201
1	22161505	6456	6413
1	22164949	6457	6519
1	22168361	6458	6042
1	22171791	6459	6466
1	22175237	6460	6201
1	22178677	6461	6572
1	22182127	6462	6519
1	22185572	6463	6360
1	22189008	6464	6201
1	22192453	6465	6519
1	22195917	6466	6307
1	22199357	6467	6519
1	22202789	6468	6148
1	22206237	6469	6360
1	22209677	6470	6625
1	22213109	6471	6148
1	22216558	6472	6466
1	22219994	6473	6254
1	22223429	6474	6360
1	22226889	6475	6307
1	22230296	6476	6413
1	22233747	6477	6254
1	22237175	6478	6360
1	22240641	6479	6413
1	22244079	6480	6307
1	22247505	6481	6360
1	22250948	6482	6413
1	22254382	6483	6519
1	22257835	6484	6201
1	22261283	6485	6360
1	22264715	6486	6360
1	22268148	6487	6519
1	22271622	6488	6095
1	22275038	6489	6466
1	22278481	6490	6307
1	22281926	6491	6201
1	22285388	6492	6784
1	22288782	6493	6201
1	22292208	6494	6148
1	22295686	6495	6784
1	22299138	6496	6148
1	22302575	6497	6307
1	22306014	6498	6254
1	22309439	6499	6466
1	22312888	6500	6254
1	22316332	6501	6360
1	22319788	6502	6413
1	22323260	6503	6625
1	22326680	6504	6148
1	22330078	6505	6360
1	22333526	6506	6201
1	22336976	6507	6519
1	22340457	6508	6678
1	22343891	6509	6254
1	22347307	6510	6148
1	22350772	6511	6572
1	22354172	6512	6042
1	22357600	6513	6360
1	22361053	6514	6572
1	22364514	6515	6201
1	22367971	6516	6466
1	22371405	6517	6307
1	22374860	6518	6466
1	22378270	6519	6148
1	22381711	6520	6519
1	22385139	6521	6148
1	22388623	6522	6625
1	22392021	6523	6413
1	22395480	6524	6095
1	22398918	6525	6307
1	22402325	6526	6360
1	22405782	6527	6413
1	22409214	6528	6519
1	22412674	6529	6413
1	22416098	6530	6042
1	22419551	6531	6519
1	22423000	6532	6360
1	22426443	6533	6466
1	22429867	6534	6095
1	22433335	6535	6678
1	22436745	6536	6201
1	22440186	6537	6360
1	22443659	6538	6201
1	22447111	6539	6519
1	22450547	6540	6413
1	22453998	6541	6148
1	22457421	6542	6784
1	22460867	6543	6148
1	22464300	6544	6201
1	22467733	6545	6466
1	22471153	6546	6360
1	22474599	6547	6360
1	22478034	6548	6413
1	22481478	6549	6095
1	22484940	6550	6784
1	22488388	6551	6254
1	22491826	6552	6360
1	22495248	6553	6042
1	22498732	6554	6625
1	22502150	6555	6466
1	22505576	6556	6254
1	22509021	6557	6413
1	22512475	6558	6307
1	22515887	6559	6095
1	22519349	6560	6731
1	22522805	6561	6148
1	22526251	6562	6413
1	22529670	6563	6307
1	22533105	6564	6307
1	22536545	6565	6519
1	22539996	6566	6413
1	22543441	6567	6254
1	22546882	6568	6360
1	22550322	6569	6572
1	22553749	6570	6148
1	22557214	6571	6360
1	22560658	6572	6413
1	22564060	6573	6254
1	22567520	6574	6466
1	22570978	6575	6413
1	22574419	6576	6201
1	22577832	6577	6413
1	22581285	6578	6307
1	22584715	6579	6360
1	22588136	6580	6201
1	22591617	6581	6731
1	22595065	6582	6201
1	22598487	6583	6360
1	22601964	6584	6466
1	22605396	6585	6307
1	22608826	6586	6413
1	22612274	6587	6360
1	22615719	6588	6201
1	22619112	6589	6360
1	22622562	6590	6360
1	22626014	6591	6466
1	22629481	6592	6360
1	22632924	6593	6360
1	22636352	6594	6413
1	22639773	6595	6307
1	22643209	6596	6042
1	22646671	6597	6837
1	22650084	6598	6095
1	22653545	6599	6360
1	22656998	6600	6360
1	22660430	6601	6466
1	22663842	6602	6254
1	22667289	6603	6360
1	22670767	6604	6572
1	22674179	6605	6095
1	22677638	6606	6466
1	22681098	6607	6572
1	22684543	6608	6254
1	22687963	6609	6148
1	22691417	6610	6413
1	22694846	6611	6413
1	22698311	6612	6572
1	22701760	6613	6042
1	22705163	6614	6519
1	22708585	6615	6254
1	22712075	6616	6466
1	22715491	6617	6254
1	22718942	6618	6413
1	22722394	6619	6519
1	22725852	6620	6413
1	22729263	6621	6095
1	22732719	6622	6625
1	22736146	6623	6201
1	22739597	6624	6360
1	22743025	6625	6148
1	22746482	6626	6625
1	22749908	6627	6413
1	22753362	6628	6413
1	22756818	6629	6307
1	22760230	6630	6254
1	22763673	6631	6360
1	22767075	6632	6148
1	22770541	6633	6625
1	22774001	6634	6413
1	22777426	6635	6095
1	22780913	6636	6678
1	22784329	6637	6413
1	22787720	6638	6095
1	22791174	6639	6413
1	22794629	6640	6254
1	22798084	6641	6413
1	22801507	6642	6625
1	22804979	6643	6042
1	22808409	6644	6466
1	22811855	6645	6466
1	22815316	6646	6307
1	22818725	6647	6519
1	22822146	6648	5989
1	22825625	6649	6678
1	22829062	6650	6254
1	22832510	6651	6360
1	22835940	6652	6307
1	22839379	6653	6307
1	22842780	6654	6095
1	22846260	6655	6678
1	22849718	6656	6519
1	22853131	6657	6148
1	22856566	6658	6307
1	22860026	6659	6519
1	22863441	6660	6148
1	22866878	6661	6466
1	22870335	6662	6360
1	22873774	6663	6466
1	22877247	6664	6307
1	22880660	6665	6413
1	22884116	6666	6466
1	22887549	6667	6201
1	22890985	6668	6360
1	22894418	6669	6254
1	22897895	6670	6572
1	22901316	6671	6254
1	22904752	6672	6519
1	22908159	6673	6201
1	22911647	6674	6466
1	22915080	6675	6307
1	22918525	6676	6307
1	22921972	6677	6519
1	22925360	6678	5989
1	22928825	6679	6625
1	22932302	6680	6360
1	22935709	6681	6254
1	22939133	6682	6148
1	22942584	6683	6572
1	22946008	6684	6254
1	22949454	6685	6572
1	22952896	6686	6307
1	22956353	6687	6201
1	22959823	6688	6466
1	22963231	6689	6201
1	22966697	6690	6466
1	22970128	6691	6466
1	22973566	6692	6360
1	22977022	6693	6307
1	22980467	6694	6466
1	22983909	6695	6466
1	22987354	6696	6466
1	22990812	6697	6254
1	22994233	6698	6095
1	22997641	6699	6307
1	23001088	6700	6307
1	23004504	6701	6572
1	23007959	6702	6201
1	23011434	6703	6572
1	23014866	6704	6307
1	23018284	6705	6201
1	23021787	6706	6731
1	23025185	6707	5830
1	23028641	6708	6625
1	23032061	6709	6307
1	23035540	6710	6678
1	23038976	6711	6148
1	23042405	6712	6466
1	23045851	6713	6254
1	23049274	6714	6360
1	23052708	6715	6307
1	23056157	6716	6360
1	23059582	6717	6360
1	23063045	6718	6307
1	23066496	6719	6519
1	23069907	6720	6254
1	23073353	6721	6360
1	23076805	6722	6201
1	23080243	6723	6572
1	23083686	6724	6572
1	23087112	6725	6148
1	23090546	6726	6360
1	23094017	6727	6413
1	23097463	6728	6095
1	23100907	6729	6625
1	23104324	6730	6360
1	23107750	6731	6360
1	23111184	6732	6254
1	23114657	6733	6572
1	23118073	6734	6042
1	23121533	6735	6519
1	23124976	6736	6360
1	23128423	6737	6254
1	23131858	6738	6572
1	23135312	6739	6360
1	23138756	6740	6254
1	23142187	6741	6307
1	23145612	6742	6466
1	23149053	6743	6201
1	23152468	6744	6307
1	23155941	6745	6466
1	23159383	6746	6307
1	23162830	6747	6466
1	23166273	6748	6466
1	23169725	6749	6360
1	23173157	6750	6307
1	23176544	6751	6254
1	23180005	6752	6519
1	23183488	6753	6254
1	23186939	6754	6572
1	23190379	6755	6148
1	23193805	6756	6254
1	23197222	6757	6519
1	23200678	6758	6254
1	23204155	6759	6360
1	23207535	6760	6360
1	23210992	6761	6307
1	23214431	6762	6572
1	23217870	6763	6095
1	23221299	6764	6519
1	23224758	6765	6413
1	23228202	6766	6307
1	23231647	6767	6360
1	23235102	6768	6254
1	23238536	6769	6466
1	23241963	6770	6201
1	23245376	6771	6254
1	23248834	6772	6413
1	23252305	6773	6678
1	23255734	6774	6148
1	23259178	6775	6413
1	23262607	6776	6360
1	23266057	6777	6307
1	23269491	6778	6519
1	23272918	6779	6466
1	23276363	6780	6148
1	23279859	6781	6466
1	23283257	6782	6254
1	23286678	6783	6201
1	23290147	6784	6678
1	23293600	6785	6360
1	23297043	6786	6360
1	23300477	6787	6095
1	23303920	6788	6360
1	23307372	6789	6678
1	23310796	6790	6360
1	23314240	6791	6307
1	23317649	6792	6148
1	23321130	6793	6307
1	23324550	6794	6625
1	23327968	6795	6095
1	23331447	6796	6678
1	23334883	6797	6201
1	23338320	6798	6201
1	23341760	6799	6466
1	23345189	6800	6254
1	23348643	6801	6519
1	23352077	6802	6254
1	23355512	6803	6519
1	23358940	6804	6360
1	23362416	6805	6254
1	23365865	6806	6413
1	23369324	6807	6360
1	23372754	6808	6307
1	23376174	6809	6572
1	23379608	6810	6148
1	23383066	6811	6413
1	23386484	6812	6307
1	23389901	6813	6413
1	23393362	6814	6413
1	23396837	6815	6360
1	23400263	6816	6201
1	23403725	6817	6731
1	23407154	6818	5936
1	23410600	6819	6519
1	23413998	6820	6413
1	23417446	6821	6254
1	23420896	6822	6360
1	23424325	6823	6360
1	23427760	6824	6307
1	23431236	6825	6466
1	23434660	6826	6413
1	23438104	6827	6360
1	23441542	6828	6413
1	23444985	6829	6148
1	23448416	6830	6466
1	23451869	6831	6413
1	23455295	6832	6254
1	23458756	6833	6307
1	23462176	6834	6254
1	23465614	6835	6572
1	23469027	6836	6201
1	23472522	6837	6678
1	23475958	6838	6201
1	23479396	6839	6201
1	23482822	6840	6572
1	23486255	6841	6201
1	23489754	6842	6519
1	23493175	6843	6360
1	23496588	6844	6360
1	23500048	6845	6360
1	23503503	6846	6307
1	23506954	6847	6572
1	23510401	6848	6095
1	23513775	6849	6095
1	23517203	6850	6360
1	23520691	6851	6625
1	23524125	6852	6307
1	23527556	6853	6307
1	23531020	6854	6413
1	23534439	6855	6360
1	23537915	6856	6466
1	23541344	6857	6307
1	23544764	6858	6466
1	23548197	6859	6095
1	23551677	6860	6572
1	23555079	6861	6413
1	23558546	6862	6307
1	23562005	6863	6466
1	23565429	6864	6095
1	23568877	6865	6466
1	23572299	6866	6466
1	23575747	6867	6254
1	23579183	6868	6519
1	23582601	6869	6148
1	23586060	6870	6360
1	23589516	6871	6360
1	23592934	6872	6413
1	23596377	6873	6413
1	23599806	6874	6307
1	23603264	6875	6360
1	23606737	6876	6360
1	23610138	6877	6201
1	23613567	6878	6731
1	23617042	6879	6360
1	23620459	6880	6095
1	23623930	6881	6572
1	23627389	6882	6254
1	23630808	6883	6201
1	23634281	6884	6678
1	23637694	6885	6095
1	23641095	6886	6360
1	23644587	6887	6519
1	23648004	6888	6148
1	23651439	6889	6519
1	23654871	6890	6148
1	23658324	6891	6466
1	23661790	6892	6413
1	23665237	6893	6360
1	23668622	6894	6254
1	23672089	6895	6466
1	23675551	6896	6466
1	23678977	6897	6307
1	23682430	6898	6413
1	23685862	6899	6254
1	23689311	6900	6307
1	23692749	6901	6254
1	23696221	6902	6625
1	23699682	6903	6466
1	23703169	6904	6466
1	23706562	6905	6254
1	23710057	6906	6413
1	23713547	6907	6466
1	23716984	6908	6307
1	23720462	6909	6625
1	23723930	6910	6201
1	23727378	6911	6413
1	23730823	6912	6413
1	23734298	6913	6466
1	23737784	6914	6307
1	23741247	6915	6572
1	23744686	6916	6254
1	23748162	6917	6413
1	23751617	6918	6413
1	23755074	6919	6519
1	23758525	6920	6201
1	23762005	6921	6572
1	23765445	6922	6307
1	23768918	6923	6413
1	23772399	6924	6625
1	23775862	6925	6254
1	23779323	6926	6254
1	23782783	6927	6625
1	23786249	6928	6307
1	23789727	6929	6519
1	23793153	6930	6254
1	23796599	6931	6307
1	23800052	6932	6307
1	23803566	6933	6678
1	23807039	6934	6625
1	23810480	6935	5989
1	23813951	6936	6572
1	23817434	6937	6466
1	23820889	6938	6254
1	23824340	6939	6413
1	23827780	6940	6625
1	23831249	6941	6307
1	23834717	6942	6307
1	23838190	6943	6519
1	23841672	6944	6413
1	23845134	6945	6413
1	23848594	6946	6148
1	23852044	6947	6625
1	23855533	6948	6519
1	23859018	6949	6625
1	23862441	6950	5989
1	23865927	6951	6466
1	23869405	6952	6466
1	23872853	6953	6360
1	23876331	6954	6360
1	23879759	6955	6519
1	23883221	6956	6360
1	23886661	6957	6519
1	23890123	6958	6095
1	23893566	6959	6625
1	23897085	6960	6413
1	23900507	6961	6254
1	23903962	6962	6360
1	23907455	6963	6466
1	23910865	6964	6572
1	23914379	6965	6360
1	23917851	6966	6360
1	23921279	6967	6413
1	23924759	6968	6466
1	23928233	6969	6254
1	23931673	6970	6466
1	23935134	6971	6360
1	23938570	6972	6413
1	23942039	6973	6148
1	23945472	6974	6413
1	23948987	6975	6572
1	23952467	6976	6466
1	23955915	6977	6201
1	23959387	6978	6837
1	23962832	6979	6254
1	23966303	6980	6360
1	23969745	6981	6413
1	23973212	6982	6466
1	23976673	6983	6095
1	23980123	6984	6519
1	23983587	6985	6360
1	23987070	6986	6466
1	23990505	6987	6201
1	23993992	6988	6784
1	23997459	6989	6254
1	24000916	6990	6360
1	24004377	6991	6360
1	24007868	6992	6625
1	24011332	6993	6307
1	24014784	6994	6413
1	24018235	6995	6201
1	24021692	6996	6413
1	24025166	6997	6731
1	24028641	6998	6148
1	24032119	6999	6625
1	24035589	7000	6466
1	24039053	7001	6413
1	24042506	7002	6148
1	24045958	7003	6572
1	24049380	7004	6095
1	24052859	7005	6678
1	24056315	7006	6148
1	24059749	7007	6625
1	24063209	7008	6095
1	24066681	7009	6625
1	24070143	7010	6307
1	24073603	7011	6519
1	24077073	7012	6413
1	24080519	7013	6360
1	24083978	7014	6413
1	24087472	7015	6466
1	24090954	7016	6360
1	24094396	7017	6519
1	24097863	7018	6360
1	24101299	7019	6201
1	24104790	7020	6519
1	24108259	7021	6466
1	24111693	7022	6466
1	24115147	7023	6148
1	24118626	7024	6572
1	24122094	7025	6360
1	24125559	7026	6307
1	24129038	7027	6519
1	24132516	7028	6625
1	24135962	7029	6095
1	24139406	7030	6360
1	24142905	7031	6572
1	24146357	7032	6413
1	24149835	7033	6572
1	24153295	7034	6148
1	24156777	7035	6625
1	24160240	7036	6254
1	24163724	7037	6731
1	24167158	7038	6095
1	24170621	7039	6519
1	24174111	7040	6625
1	24177533	7041	6201
1	24181050	7042	6466
1	24184515	7043	6254
1	24187987	7044	6572
1	24191413	7045	6148
1	24194909	7046	6572
1	24198360	7047	6360
1	24201863	7048	6572
1	24205322	7049	6254
1	24208760	7050	6360
1	24212259	7051	6678
1	24215701	7052	6307
1	24219151	7053	6360
1	24222652	7054	6572
1	24226135	7055	6466
1	24229610	7056	6307
1	24233063	7057	6466
1	24236485	7058	6148
1	24239979	7059	6572
1	24243456	7060	6254
1	24246915	7061	6625
1	24250365	7062	6307
1	24253857	7063	6572
1	24257304	7064	6360
1	24260782	7065	6254
1	24264242	7066	6572
1	24267672	7067	6307
1	24271162	7068	6466
1	24274665	7069	6360
1	24278131	7070	6519
1	24281599	7071	6413
1	24285072	7072	6307
1	24288531	7073	6519
1	24292005	7074	6519
1	24295474	7075	6360
1	24298919	7076	6360
1	24302388	7077	6360
1	24305860	7078	6519
1	24309333	7079	6360
1	24312785	7080	6519
1	24316251	7081	6148
1	24319747	7082	6678
1	24323191	7083	6201
1	24326638	7084	6466
1	24330121	7085	6201
1	24333589	7086	6731
1	24337060	7087	6307
1	24340499	7088	6360
1	24343979	7089	6413
1	24347429	7090	6413
1	24350903	7091	6466
1	24354395	7092	6254
1	24357830	7093	6519
1	24361303	7094	6466
1	24364782	7095	6413
1	24368291	7096	6519
1	24371767	7097	6360
1	24375174	7098	6148
1	24378637	7099	6413
1	24382134	7100	6678
1	24385557	7101	6148
1	24389000	7102	6572
1	24392434	7103	6201
1	24395913	7104	6625
1	24399323	7105	6095
1	24402763	7106	6625
1	24406216	7107	6095
1	24409664	7108	6466
1	24413107	7109	6307
1	24416523	7110	6201
1	24419988	7111	6466
1	24423423	7112	6095
1	24426860	7113	6731
1	24430308	7114	6254
1	24433756	7115	6519
1	24437166	7116	6307
1	24440618	7117	6307
1	24444078	7118	6466
1	24447527	7119	6413
1	24450933	7120	6201
1	24454409	7121	6413
1	24457815	7122	6201
1	24461284	7123	6413
1	24464714	7124	6360
1	24468143	7125	6307
1	24471593	7126	6360
1	24475019	7127	6413
1	24478477	7128	6466
1	24481939	7129	6519
1	24485349	7130	6148
1	24488814	7131	6466
1	24492232	7132	6307
1	24495691	7133	6307
1	24499132	7134	6413
1	24502567	7135	6360
1	24506011	7136	6466
1	24509446	7137	6254
1	24512892	7138	6360
1	24516318	7139	6466
1	24519784	7140	6307
1	24523237	7141	6360
1	24526669	7142	6413
1	24530095	7143	6148
1	24533538	7144	6307
1	24536953	7145	6360
1	24540400	7146	6466
1	24543865	7147	6572
1	24547303	7148	6095
1	24550747	7149	6519
1	24554170	7150	6254
1	24557633	7151	6519
1	24561028	7152	6095
1	24564488	7153	6678
1	24567959	7154	6148
1	24571410	7155	6625
1	24574809	7156	6042
1	24578248	7157	6307
1	24581694	7158	6466
1	24585162	7159	6413
1	24588608	7160	6360
1	24592058	7161	6413
1	24595480	7162	6254
1	24598941	7163	6307
1	24602357	7164	6519
1	24605830	7165	6148
1	24609241	7166	6519
1	24612655	7167	6201
1	24616103	7168	6519
1	24619549	7169	6254
1	24622992	7170	6413
1	24626452	7171	6466
1	24629883	7172	6307
1	24633294	7173	6254
1	24636754	7174	6413
1	24640217	7175	6360
1	24643634	7176	6201
1	24647086	7177	6625
1	24650518	7178	6254
1	24653960	7179	6148
1	24657415	7180	6625
1	24660842	7181	6254
1	24664271	7182	6413
1	24667697	7183	6307
1	24671144	7184	6466
1	24674591	7185	6307
1	24678063	7186	6307
1	24681506	7187	6678
1	24684929	7188	6201
1	24688366	7189	6254
1	24691819	7190	6466
1	24695242	7191	6148
1	24698714	7192	6360
1	24702133	7193	6466
1	24705555	7194	6254
1	24709017	7195	6466
1	24712461	7196	6360
1	24715905	7197	6360
1	24719320	7198	6201
1	24722807	7199	6572
1	24726248	7200	6307
1	24729698	7201	6307
1	24733152	7202	6678
1	24736582	7203	6201
1	24740026	7204	6519
1	24743461	7205	6201
1	24746919	7206	6413
1	24750339	7207	6360
1	24753748	7208	6307
1	24757189	7209	6360
1	24760649	7210	6307
1	24764042	7211	6254
1	24767497	7212	6360
1	24770966	7213	6466
1	24774407	7214	6307
1	24777832	7215	6519
1	24781269	7216	6095
1	24784723	7217	6360
1	24788162	7218	6360
1	24791611	7219	6625
1	24795065	7220	6201
1	24798500	7221	6360
1	24801966	7222	6625
1	24805356	7223	6095
1	24808786	7224	6254
1	24812282	7225	6678
1	24815680	7226	5989
1	24819129	7227	6360
1	24822580	7228	6731
1	24826029	7229	6254
1	24829443	7230	6201
1	24832900	7231	6307
1	24836347	7232	6731
1	24839763	7233	5936
1	24843222	7234	6519
1	24846666	7235	6307
1	24850131	7236	6307
1	24853535	7237	6466
1	24856992	7238	6413
1	24860441	7239	6466
1	24863890	7240	6095
1	24867332	7241	6519
1	24870786	7242	6413
1	24874215	7243	6360
1	24877626	7244	6148
1	24881078	7245	6360
1	24884523	7246	6466