version 2
run AimdCC-0-20100909-13:51:54-5976
attr configname AimdCC
attr datetime 20100909-13:51:54
attr delay 50ms
attr experiment AimdCC
attr inifile D:/Developement/Oversim2/multic/simulations/omnetpp.ini
attr iterationvars $delay=50ms
attr iterationvars2 "$delay=50ms, $repetition=0"
attr measurement $delay=50ms
attr network oversim.underlay.simpleunderlay.SimpleUnderlayNetwork
attr processid 5976
attr repetition 0
attr replication #0
attr resultdir results
attr runnumber 0
attr seedset 0

vector 1  SimpleUnderlayNetwork.globalObserver.globalStatistics  incoming_bytes  ETV
vector 2  SimpleUnderlayNetwork.globalObserver.globalStatistics  drops  ETV
vector 3  SimpleUnderlayNetwork.globalObserver.globalStatistics  delayed_acks  ETV
vector 4  SimpleUnderlayNetwork.globalObserver.globalStatistics  timetotimeouts  ETV
vector 5  SimpleUnderlayNetwork.globalObserver.globalStatistics  9rateOf1To0  ETV
vector 6  SimpleUnderlayNetwork.globalObserver.globalStatistics  max9RateOf1To0  ETV
vector 7  SimpleUnderlayNetwork.globalObserver.globalStatistics  9rateOf1To1  ETV
vector 8  SimpleUnderlayNetwork.globalObserver.globalStatistics  max9RateOf1To1  ETV
vector 9  SimpleUnderlayNetwork.globalObserver.globalStatistics  9rateOf1To2  ETV
vector 10  SimpleUnderlayNetwork.globalObserver.globalStatistics  max9RateOf1To2  ETV
vector 11  SimpleUnderlayNetwork.globalObserver.globalStatistics  9rateOf1To3  ETV
vector 12  SimpleUnderlayNetwork.globalObserver.globalStatistics  max9RateOf1To3  ETV
vector 13  SimpleUnderlayNetwork.globalObserver.globalStatistics  9rateOf1To4  ETV
vector 14  SimpleUnderlayNetwork.globalObserver.globalStatistics  max9RateOf1To4  ETV
vector 15  SimpleUnderlayNetwork.globalObserver.globalStatistics  9rateOf1To5  ETV
vector 16  SimpleUnderlayNetwork.globalObserver.globalStatistics  max9RateOf1To5  ETV
vector 17  SimpleUnderlayNetwork.globalObserver.globalStatistics  9rateOf1To6  ETV
vector 18  SimpleUnderlayNetwork.globalObserver.globalStatistics  max9RateOf1To6  ETV
vector 19  SimpleUnderlayNetwork.globalObserver.globalStatistics  9rateOf1To7  ETV
vector 20  SimpleUnderlayNetwork.globalObserver.globalStatistics  max9RateOf1To7  ETV
vector 21  SimpleUnderlayNetwork.globalObserver.globalStatistics  9rateOf1To8  ETV
vector 22  SimpleUnderlayNetwork.globalObserver.globalStatistics  max9RateOf1To8  ETV
vector 23  SimpleUnderlayNetwork.globalObserver.globalStatistics  9rateOf1To9  ETV
vector 24  SimpleUnderlayNetwork.globalObserver.globalStatistics  max9RateOf1To9  ETV
vector 25  SimpleUnderlayNetwork.globalObserver.globalStatistics  1rate  ETV
vector 26  SimpleUnderlayNetwork.globalObserver.globalStatistics  max2Rate  ETV
vector 27  SimpleUnderlayNetwork.globalObserver.globalStatistics  "GlobalNodeList: Number of nodes"  ETV
vector 28  SimpleUnderlayNetwork.globalObserver.globalStatistics  "GlobalNodeList: Number of bootstrapped malicious nodes"  ETV
1	56897989	6019	17119
1	56906994	6020	17384
1	56916054	6021	17331
1	56925229	6022	17596
1	56934258	6023	17278
1	56943230	6024	17225
1	56952311	6025	17384
1	56961401	6026	17543
1	56970425	6027	17278
1	56979502	6028	17543
1	56988577	6029	17225
1	56997636	6030	17490
1	57006741	6031	17437
1	57015828	6032	17543
1	57024935	6033	17490
1	57033996	6034	17384
1	57043149	6035	17596
1	57052285	6036	17543
1	57061423	6037	17490
1	57070598	6038	17649
1	57079793	6039	17702
1	57088972	6040	17543
1	57098135	6041	17543
1	57107257	6042	17596
1	57116494	6043	17808
1	57125654	6044	17649
1	57134705	6045	17278
1	57143719	6046	17437
1	57152752	6047	17278
1	57161845	6048	17543
1	57170880	6049	17331
1	57179978	6050	17543
1	57188978	6051	17278
1	57198125	6052	17702
1	57207228	6053	17437
1	57216395	6054	17490
1	57225599	6055	17808
1	57234738	6056	17649
1	57243861	6057	17437
1	57253018	6058	17543
1	57262165	6059	17490
1	57271215	6060	17384
1	57280389	6061	17702
1	57289573	6062	17702
1	57298659	6063	17331
1	57307836	6064	17702
1	57316915	6065	17543
1	57326009	6066	17437
1	57335220	6067	17649
1	57344425	6068	17649
1	57353454	6069	17278
1	57362591	6070	17649
1	57371857	6071	17649
1	57381079	6072	17702
1	57390263	6073	17755
1	57399456	6074	17649
1	57408637	6075	17596
1	57417841	6076	17649
1	57427024	6077	17649
1	57436160	6078	17596
1	57445277	6079	17437
1	57454435	6080	17596
1	57463587	6081	17649
1	57472680	6082	17490
1	57481678	6083	17119
1	57490673	6084	17278
1	57499692	6085	17278
1	57508749	6086	17437
1	57517834	6087	17437
1	57526975	6088	17543
1	57536070	6089	17490
1	57545138	6090	17331
1	57554234	6091	17543
1	57563292	6092	17437
1	57572473	6093	17596
1	57581634	6094	17490
1	57590797	6095	17702
1	57599944	6096	17384
1	57609196	6097	17861
1	57618385	6098	17596
1	57627409	6099	17331
1	57636370	6100	17172
1	57645420	6101	17278
1	57654598	6102	17808
1	57663671	6103	17331
1	57672810	6104	17596
1	57681969	6105	17490
1	57691114	6106	17596
1	57700263	6107	17490
1	57709378	6108	17649
1	57718371	6109	17172
1	57727445	6110	17437
1	57736463	6111	17278
1	57745485	6112	17331
1	57754531	6113	17278
1	57763540	6114	17384
1	57772600	6115	17384
1	57781693	6116	17490
1	57790719	6117	17225
1	57799725	6118	17225
1	57808752	6119	17384
1	57817864	6120	17490
1	57826960	6121	17543
1	57836058	6122	17437
1	57845182	6123	17490
1	57854369	6124	17649
1	57863462	6125	17490
1	57872485	6126	17384
1	57881515	6127	17278
1	57890463	6128	17172
1	57899417	6129	17278
1	57908269	6130	16960
1	57917058	6131	16907
1	57925850	6132	16854
1	57934612	6133	16748
1	57943496	6134	17066
1	57952294	6135	16907
1	57961195	6136	17013
1	57970069	6137	17225
1	57978813	6138	16536
1	57987605	6139	17013
1	57996417	6140	16854
1	58005237	6141	17013
1	58013978	6142	16748
1	58022724	6143	16801
1	58031538	6144	16801
1	58040386	6145	17119
1	58049096	6146	16854
1	58057828	6147	16589
1	58066538	6148	16854
1	58075203	6149	16695
1	58083835	6150	16430
1	58092551	6151	16854
1	58101165	6152	16483
1	58109865	6153	16748
1	58118582	6154	16748
1	58127275	6155	16748
1	58135959	6156	16536
1	58144633	6157	16695
1	58153398	6158	17013
1	58162094	6159	16483
1	58170865	6160	16907
1	58179577	6161	16695
1	58188353	6162	16801
1	58197126	6163	16854
1	58205961	6164	17066
1	58214784	6165	16801
1	58223592	6166	17066
1	58232439	6167	16801
1	58241304	6168	17172
1	58250077	6169	16695
1	58259037	6170	17119
1	58267985	6171	17225
1	58276802	6172	16907
1	58285753	6173	17225
1	58294626	6174	16907
1	58303360	6175	16801
1	58312047	6176	16695
1	58320741	6177	16695
1	58329491	6178	16695
1	58338211	6179	16748
1	58346932	6180	16748
1	58355654	6181	16907
1	58364351	6182	16536
1	58372984	6183	16589
1	58381661	6184	16695
1	58390295	6185	16483
1	58399084	6186	16801
1	58407861	6187	16854
1	58416644	6188	16854
1	58425353	6189	16801
1	58434162	6190	16907
1	58442938	6191	16907
1	58451687	6192	16695
1	58460509	6193	16960
1	58469273	6194	16854
1	58478058	6195	16854
1	58486892	6196	16907
1	58495686	6197	17013
1	58504465	6198	16801
1	58513249	6199	16854
1	58521963	6200	16907
1	58530789	6201	16695
1	58539603	6202	17013
1	58548380	6203	16748
1	58557236	6204	17119
1	58566036	6205	16748
1	58574758	6206	16801
1	58583473	6207	16695
1	58592199	6208	16854
1	58600956	6209	16748
1	58609765	6210	16854
1	58618516	6211	16907
1	58627218	6212	16642
1	58635935	6213	16748
1	58644608	6214	16695
1	58653328	6215	16801
1	58662016	6216	16589
1	58670756	6217	16907
1	58679526	6218	16642
1	58688301	6219	16907
1	58697040	6220	16854
1	58705776	6221	16854
1	58714525	6222	16695
1	58723307	6223	16801
1	58732075	6224	16907
1	58740860	6225	16748
1	58749693	6226	17013
1	58758344	6227	16642
1	58766999	6228	16642
1	58775603	6229	16483
1	58784210	6230	16483
1	58792892	6231	16642
1	58801590	6232	16695
1	58810282	6233	16695
1	58818913	6234	16589
1	58827601	6235	16642
1	58836204	6236	16589
1	58844865	6237	16483
1	58853594	6238	16801
1	58862370	6239	16801
1	58871106	6240	16748
1	58879907	6241	17013
1	58888656	6242	16748
1	58897301	6243	16536
1	58906013	6244	16801
1	58914803	6245	16801
1	58923601	6246	17013
1	58932394	6247	16801
1	58941174	6248	16907
1	58949898	6249	16642
1	58958664	6250	16801
1	58967467	6251	16960
1	58976214	6252	16801
1	58984931	6253	16748
1	58993624	6254	16536
1	59002446	6255	16960
1	59011313	6256	17066
1	59020099	6257	16854
1	59028899	6258	16854
1	59037698	6259	16854
1	59046535	6260	17066
1	59055244	6261	16642
1	59063893	6262	16695
1	59072549	6263	16589
1	59081215	6264	16695
1	59089905	6265	16642
1	59098665	6266	16907
1	59107324	6267	16642
1	59116039	6268	16642
1	59124807	6269	16854
1	59133574	6270	16907
1	59142361	6271	16801
1	59151186	6272	16960
1	59159935	6273	16854
1	59168685	6274	16907
1	59177534	6275	16854
1	59186299	6276	16801
1	59194979	6277	16642
1	59203699	6278	16801
1	59212444	6279	16695
1	59221207	6280	17013
1	59229766	6281	16430
1	59238407	6282	16536
1	59247044	6283	16642
1	59255700	6284	16536
1	59264294	6285	16536
1	59272844	6286	16377
1	59281537	6287	16801
1	59290247	6288	16642
1	59298945	6289	16695
1	59307636	6290	16695
1	59316402	6291	16801
1	59325107	6292	16695
1	59333846	6293	16801
1	59342606	6294	16907
1	59351348	6295	16801
1	59360033	6296	16536
1	59368835	6297	17013
1	59377563	6298	16748
1	59386395	6299	16960
1	59395112	6300	16801
1	59403889	6301	16801
1	59412631	6302	16801
1	59421405	6303	16801
1	59430140	6304	16748
1	59438899	6305	16801
1	59447588	6306	16695
1	59456300	6307	16801
1	59465015	6308	16748
1	59473677	6309	16589
1	59482338	6310	16589
1	59491053	6311	16748
1	59499733	6312	16642
1	59508380	6313	16589
1	59517148	6314	16801
1	59525848	6315	16695
1	59534650	6316	16960
1	59543317	6317	16642
1	59552108	6318	16907
1	59560847	6319	16748
1	59569489	6320	16695
1	59578118	6321	16483
1	59586880	6322	16854
1	59595585	6323	16642
1	59604308	6324	16801
1	59613106	6325	16801
1	59621931	6326	16854
1	59630752	6327	16907
1	59639581	6328	16960
1	59648412	6329	16854
1	59657280	6330	17119
1	59666024	6331	16695
1	59674698	6332	16695
1	59683438	6333	16907
1	59692284	6334	16854
1	59700998	6335	16801
1	59709780	6336	16748
1	59718729	6337	17225
1	59727501	6338	16854
1	59736345	6339	16907
1	59745038	6340	16642
1	59753805	6341	16907
1	59762649	6342	16907
1	59771442	6343	16854
1	59780166	6344	16801
1	59788966	6345	16854
1	59797838	6346	17013
1	59806715	6347	17013
1	59815503	6348	16854
1	59824369	6349	17119
1	59833101	6350	16695
1	59841858	6351	16801
1	59850676	6352	16854
1	59859489	6353	16907
1	59868303	6354	16960
1	59877106	6355	16907
1	59885812	6356	16642
1	59894408	6357	16483
1	59902995	6358	16483
1	59911614	6359	16589
1	59920351	6360	16695
1	59929057	6361	16642
1	59937804	6362	16854
1	59946458	6363	16695
1	59955102	6364	16536
1	59963827	6365	16642
1	59972430	6366	16589
1	59981095	6367	16536
1	59989792	6368	16748
1	59998461	6369	16695
1	60007137	6370	16589
1	60015860	6371	16748
1	60024567	6372	16854
1	60033285	6373	16642
1	60042041	6374	16642
1	60050839	6375	17013
1	60059668	6376	16960
1	60068484	6377	16907
1	60077297	6378	16854
1	60086077	6379	16907
1	60094910	6380	16801
1	60103762	6381	17066
1	60112712	6382	17119
1	60121542	6383	16960
1	60130329	6384	16801
1	60139195	6385	17013
1	60148077	6386	17066
1	60156946	6387	17066
1	60165832	6388	16960
1	60174722	6389	17066
1	60183648	6390	17172
1	60192491	6391	16907
1	60201314	6392	16960
1	60210086	6393	16960
1	60218881	6394	16748
1	60227758	6395	17119
1	60236504	6396	16695
1	60245398	6397	17066
1	60254307	6398	17119
1	60263292	6399	17172
1	60272193	6400	17119
1	60281063	6401	17066
1	60289996	6402	17119
1	60298938	6403	17172
1	60307731	6404	16854
1	60316596	6405	16960
1	60325564	6406	17172
1	60334438	6407	17066
1	60343357	6408	17119
1	60352228	6409	17013
1	60361069	6410	16907
1	60369974	6411	17119
1	60378868	6412	17119
1	60387750	6413	17119
1	60396566	6414	16854
1	60405385	6415	16854
1	60414088	6416	16695
1	60422911	6417	16960
1	60431808	6418	17013
1	60440713	6419	17225
1	60449519	6420	16854
1	60458292	6421	16854
1	60467087	6422	16854
1	60475857	6423	16907
1	60484571	6424	16695
1	60493371	6425	16854
1	60502194	6426	16907
1	60510834	6427	16642
1	60519626	6428	16854
1	60528367	6429	16801
1	60537149	6430	16907
1	60546025	6431	17013
1	60554788	6432	16854
1	60563614	6433	16854
1	60572476	6434	17013
1	60581273	6435	16907
1	60590007	6436	16801
1	60598756	6437	16748
1	60607486	6438	16854
1	60616163	6439	16536
1	60624903	6440	16801
1	60633635	6441	16695
1	60642383	6442	16748
1	60651067	6443	16695
1	60659733	6444	16642
1	60668442	6445	16642
1	60677161	6446	16695
1	60685948	6447	16801
1	60694709	6448	16854
1	60703281	6449	16430
1	60711881	6450	16430
1	60720614	6451	16854
1	60729214	6452	16377
1	60737890	6453	16695
1	60746564	6454	16642
1	60755268	6455	16748
1	60764067	6456	16801
1	60772951	6457	17066
1	60781736	6458	16907
1	60790507	6459	16801
1	60799267	6460	16801
1	60808022	6461	16854
1	60816812	6462	16748
1	60825612	6463	16960
1	60834497	6464	17013
1	60843372	6465	17066
1	60852165	6466	16748
1	60861042	6467	17172
1	60869706	6468	16589
1	60878537	6469	16907
1	60887354	6470	17013
1	60896099	6471	16695
1	60904922	6472	16960
1	60913794	6473	17013
1	60922712	6474	17066
1	60931595	6475	17066
1	60940464	6476	17066
1	60949353	6477	16960
1	60958224	6478	17172
1	60967143	6479	17119
1	60976084	6480	17172
1	60984963	6481	17066
1	60993784	6482	16801
1	61002725	6483	17278
1	61011583	6484	16960
1	61020477	6485	17119
1	61029337	6486	16907
1	61038228	6487	17119
1	61047014	6488	16801
1	61055809	6489	17013
1	61064563	6490	16695
1	61073227	6491	16642
1	61081965	6492	16854
1	61090566	6493	16430
1	61099253	6494	16536
1	61107936	6495	16695
1	61116537	6496	16589
1	61125255	6497	16589
1	61133928	6498	16748
1	61142775	6499	16907
1	61151548	6500	16907
1	61160293	6501	16695
1	61169137	6502	16960
1	61177943	6503	17013
1	61186768	6504	16854
1	61195525	6505	16801
1	61204426	6506	17013
1	61213362	6507	17225
1	61222204	6508	16854
1	61231050	6509	17066
1	61239904	6510	16960
1	61248846	6511	17225
1	61257698	6512	16960
1	61266557	6513	16960
1	61275450	6514	17066
1	61284302	6515	16907
1	61293132	6516	17119
1	61301998	6517	16907
1	61310877	6518	16960
1	61319768	6519	17172
1	61328488	6520	16748
1	61337214	6521	16748
1	61346107	6522	17013
1	61354950	6523	17013
1	61363893	6524	17172
1	61372899	6525	17278
1	61381787	6526	17172
1	61390671	6527	17119
1	61399421	6528	16589
1	61408387	6529	17225
1	61417293	6530	17119
1	61426287	6531	17384
1	61435250	6532	17331
1	61444104	6533	16907
1	61453014	6534	17013
1	61461958	6535	17225
1	61470851	6536	17013
1	61479805	6537	17331
1	61488844	6538	17278
1	61497855	6539	17384
1	61506874	6540	17384
1	61515998	6541	17437
1	61525104	6542	17543
1	61534270	6543	17543
1	61543330	6544	17437
1	61552334	6545	17331
1	61561340	6546	17225
1	61570405	6547	17384
1	61579443	6548	17490
1	61588442	6549	17384
1	61597425	6550	17225
1	61606425	6551	17278
1	61615373	6552	17278
1	61624250	6553	16960
1	61633256	6554	17331
1	61642173	6555	17119
1	61651070	6556	17066
1	61659904	6557	17013
1	61668809	6558	17066
1	61677673	6559	17013
1	61686560	6560	17225
1	61695301	6561	16801
1	61704200	6562	16960
1	61713124	6563	17066
1	61722055	6564	17172
1	61730842	6565	16854
1	61739818	6566	17278
1	61748751	6567	17119
1	61757701	6568	17119
1	61766798	6569	17490
1	61775818	6570	17331
1	61784696	6571	17119
1	61793556	6572	16907
1	61802352	6573	17013
1	61811157	6574	16801
1	61819938	6575	16960
1	61828771	6576	16854
1	61837565	6577	16960
1	61846425	6578	16960
1	61855390	6579	17278
1	61864289	6580	17119
1	61873162	6581	17066
1	61882057	6582	17066
1	61890968	6583	16960
1	61899879	6584	17172
1	61908816	6585	17172
1	61917653	6586	16854
1	61926499	6587	16960
1	61935336	6588	17013
1	61944096	6589	16748
1	61953018	6590	17119
1	61961830	6591	16960
1	61970684	6592	16854
1	61979466	6593	17013
1	61988246	6594	16748
1	61997074	6595	16960
1	62005925	6596	16960
1	62014845	6597	17172
1	62023785	6598	17225
1	62032744	6599	17172
1	62041580	6600	16907
1	62050490	6601	17225
1	62059502	6602	17225
1	62068334	6603	17013
1	62077115	6604	16801
1	62085941	6605	17013
1	62094829	6606	17013
1	62103620	6607	16907
1	62112430	6608	16907
1	62121360	6609	17172
1	62130153	6610	16854
1	62139007	6611	16907
1	62147810	6612	16960
1	62156616	6613	16907
1	62165429	6614	16854
1	62174316	6615	17119
1	62183125	6616	16854
1	62191918	6617	16907
1	62200899	6618	17225
1	62209682	6619	17013
1	62218672	6620	17172
1	62227638	6621	17225
1	62236634	6622	17278
1	62245645	6623	17384
1	62254578	6624	17066
1	62263560	6625	17278
1	62272548	6626	17225
1	62281598	6627	17437
1	62290644	6628	17384
1	62299652	6629	17278
1	62308682	6630	17384
1	62317722	6631	17437
1	62326778	6632	17384
1	62335692	6633	17013
1	62344707	6634	17331
1	62353756	6635	17437
1	62362755	6636	17331
1	62371793	6637	17331
1	62380820	6638	17384
1	62389830	6639	17278
1	62398903	6640	17437
1	62407932	6641	17437
1	62416923	6642	17225
1	62425979	6643	17543
1	62434979	6644	17225
1	62443938	6645	17225
1	62452816	6646	17013
1	62461763	6647	17172
1	62470743	6648	17225
1	62479836	6649	17437
1	62488912	6650	17490
1	62497963	6651	17278
1	62506993	6652	17437
1	62516076	6653	17331
1	62525239	6654	17702
1	62534320	6655	17331
1	62543432	6656	17543
1	62552471	6657	17331
1	62561521	6658	17384
1	62570584	6659	17437
1	62579699	6660	17543
1	62588767	6661	17384
1	62597939	6662	17649
1	62607026	6663	17384
1	62616082	6664	17331
1	62625164	6665	17437
1	62634254	6666	17543
1	62643309	6667	17384
1	62652500	6668	17702
1	62661694	6669	17596
1	62670827	6670	17596
1	62679856	6671	17225
1	62688980	6672	17543
1	62698054	6673	17490
1	62707130	6674	17331
1	62716087	6675	17278
1	62725091	6676	17278
1	62734150	6677	17437
1	62743095	6678	17278
1	62752116	6679	17278
1	62761024	6680	17119
1	62770059	6681	17225
1	62779130	6682	17543
1	62788251	6683	17490
1	62797482	6684	17702
1	62806591	6685	17384
1	62815784	6686	17861
1	62824863	6687	17225
1	62834004	6688	17543
1	62843083	6689	17543
1	62852080	6690	17172
1	62861189	6691	17596
1	62870316	6692	17490
1	62879411	6693	17331
1	62888428	6694	17384
1	62897494	6695	17331
1	62906662	6696	17702
1	62915716	6697	17278
1	62924820	6698	17437
1	62934057	6699	17808
1	62943307	6700	17702
1	62952449	6701	17490
1	62961626	6702	17755
1	62970761	6703	17384
1	62979891	6704	17543
1	62989114	6705	17755
1	62998294	6706	17649
1	63007445	6707	17543
1	63016659	6708	17596
1	63025888	6709	17755
1	63035154	6710	17808
1	63044423	6711	17808
1	63053607	6712	17596
1	63062786	6713	17596
1	63072140	6714	17967
1	63081532	6715	17967
1	63090891	6716	18020
1	63100225	6717	17861
1	63109537	6718	17914
1	63118868	6719	18020
1	63128158	6720	17702
1	63137485	6721	17967
1	63146877	6722	17967
1	63156378	6723	18232
1	63165732	6724	18073
1	63175141	6725	18020
1	63184541	6726	18073
1	63193946	6727	18073
1	63203411	6728	18285
1	63212803	6729	17861
1	63222297	6730	18338
1	63231803	6731	18179
1	63241214	6732	18126
1	63250602	6733	18020
1	63259933	6734	18020
1	63269341	6735	17861
1	63278821	6736	18391
1	63288230	6737	17967
1	63297651	6738	18126
1	63307018	6739	18126
1	63316328	6740	17808
1	63325742	6741	18179
1	63335134	6742	18073
1	63344454	6743	17967
1	63353794	6744	17861
1	63363267	6745	18179
1	63372746	6746	18232
1	63382271	6747	18285
1	63391828	6748	18444
1	63401381	6749	18391
1	63410836	6750	18126
1	63420199	6751	17914
1	63429699	6752	18338
1	63439084	6753	18126
1	63448499	6754	18020
1	63457776	6755	17808
1	63467140	6756	18020
1	63476379	6757	17649
1	63485650	6758	17914
1	63494898	6759	17596
1	63504087	6760	17702
1	63513224	6761	17543
1	63522441	6762	17702
1	63531740	6763	17861
1	63540971	6764	17702
1	63550234	6765	17755
1	63559622	6766	18126
1	63568898	6767	17702
1	63578211	6768	17914
1	63587432	6769	17702
1	63596739	6770	17914
1	63606021	6771	17808
1	63615248	6772	17649
1	63624659	6773	18126
1	63633966	6774	17914
1	63643393	6775	18020
1	63652673	6776	17861
1	63662020	6777	18020
1	63671393	6778	17914
1	63680785	6779	18179
1	63690216	6780	17967
1	63699581	6781	18126
1	63708905	6782	17861
1	63718330	6783	18179
1	63727672	6784	17808
1	63737035	6785	18020
1	63746431	6786	18073
1	63755688	6787	17702
1	63765130	6788	18232
1	63774488	6789	17967
1	63783856	6790	18020
1	63793261	6791	17967
1	63802544	6792	17914
1	63811894	6793	17914
1	63821244	6794	18073
1	63830614	6795	18073
1	63839839	6796	17596
1	63848940	6797	17649
1	63858131	6798	17490
1	63867384	6799	17861
1	63876529	6800	17490
1	63885687	6801	17649
1	63894851	6802	17702
1	63904047	6803	17437
1	63913162	6804	17596
1	63922326	6805	17543
1	63931501	6806	17702
1	63940688	6807	17649
1	63949937	6808	17702
1	63959225	6809	17914
1	63968467	6810	17596
1	63977687	6811	17808
1	63986960	6812	17649
1	63996198	6813	17702
1	64005489	6814	17967
1	64014766	6815	17808
1	64023969	6816	17702
1	64033263	6817	17861
1	64042450	6818	17702
1	64051615	6819	17649
1	64060820	6820	17596
1	64070121	6821	17967
1	64079364	6822	17649
1	64088600	6823	17755
1	64097896	6824	18073
1	64107204	6825	17861
1	64116514	6826	17755
1	64125747	6827	17755
1	64134931	6828	17702
1	64144196	6829	17808
1	64153401	6830	17755
1	64162589	6831	17596
1	64171916	6832	17914
1	64181253	6833	18020
1	64190534	6834	17808
1	64199726	6835	17649
1	64208994	6836	17914
1	64218253	6837	17649
1	64227433	6838	17596
1	64236671	6839	17861
1	64245865	6840	17702
1	64255038	6841	17490
1	64264199	6842	17702
1	64273377	6843	17490
1	64282616	6844	17755
1	64291870	6845	17808
1	64300999	6846	17596
1	64310176	6847	17596
1	64319363	6848	17596
1	64328474	6849	17490
1	64337772	6850	17861
1	64347006	6851	17702
1	64356245	6852	17755
1	64365547	6853	17914
1	64374724	6854	17649
1	64383929	6855	17755
1	64393199	6856	17702
1	64402511	6857	17808
1	64411776	6858	17755
1	64421056	6859	17967
1	64430324	6860	17755
1	64439505	6861	17702
1	64448745	6862	17649
1	64458067	6863	17914
1	64467356	6864	17914
1	64476687	6865	17914
1	64485967	6866	17808
1	64495280	6867	17755
1	64504590	6868	17914
1	64513955	6869	18020
1	64523350	6870	18179
1	64532693	6871	17861
1	64542101	6872	18020
1	64551437	6873	18020
1	64560720	6874	17702
1	64570133	6875	18020
1	64579538	6876	18126
1	64588949	6877	18126
1	64598352	6878	18020
1	64607910	6879	18391
1	64617509	6880	18391
1	64626995	6881	18232
1	64636467	6882	18232
1	64645840	6883	17914
1	64655231	6884	18126
1	64664578	6885	17808
1	64673918	6886	17967
1	64683294	6887	18020
1	64692659	6888	17914
1	64701928	6889	17808
1	64711247	6890	17861
1	64720521	6891	17755
1	64729841	6892	17967
1	64739149	6893	17861
1	64748476	6894	17861
1	64757742	6895	17808
1	64767032	6896	17861
1	64776403	6897	18073
1	64785723	6898	17861
1	64795039	6899	17914
1	64804410	6900	17967
1	64813667	6901	17702
1	64822951	6902	17808
1	64832242	6903	17861
1	64841560	6904	17808
1	64850829	6905	17861
1	64860115	6906	17861
1	64869330	6907	17755
1	64878539	6908	17649
1	64887867	6909	17861
1	64897133	6910	17914
1	64906438	6911	17861
1	64915773	6912	17914
1	64925107	6913	18020
1	64934471	6914	18020
1	64943798	6915	17861
1	64953094	6916	17861
1	64962293	6917	17702
1	64971536	6918	17861
1	64980744	6919	17543
1	64989997	6920	17755
1	64999118	6921	17596
1	65008250	6922	17490
1	65017472	6923	17755
1	65026689	6924	17649
1	65036019	6925	17967
1	65045179	6926	17543
1	65054422	6927	17861
1	65063681	6928	17755
1	65072911	6929	17649
1	65082140	6930	17649
1	65091403	6931	17861
1	65100656	6932	17808
1	65109875	6933	17596
1	65119174	6934	17861
1	65128497	6935	17914
1	65137873	6936	18020
1	65147281	6937	18020
1	65156640	6938	18126
1	65166153	6939	18285
1	65175389	6940	17649
1	65184689	6941	17914
1	65193964	6942	17808
1	65203341	6943	18020
1	65212727	6944	18020
1	65222039	6945	17861
1	65231335	6946	17914
1	65240739	6947	17967
1	65249980	6948	17861
1	65259186	6949	17649
1	65268475	6950	17914
1	65277708	6951	17596
1	65287007	6952	17914
1	65296349	6953	17914
1	65305625	6954	17914
1	65314892	6955	17702
1	65324160	6956	17755
1	65333548	6957	18073
1	65342951	6958	18232
1	65352308	6959	17808
1	65361594	6960	17808
1	65371009	6961	18073
1	65380389	6962	18179
1	65389776	6963	17861
1	65399054	6964	17861
1	65408323	6965	17861
1	65417577	6966	17755
1	65426909	6967	17861
1	65436216	6968	17914
1	65445534	6969	17967
1	65454859	6970	17808
1	65464207	6971	18073
1	65473611	6972	18073
1	65483008	6973	18073
1	65492369	6974	17967
1	65501684	6975	17861
1	65511077	6976	18020
1	65520504	6977	18073
1	65530008	6978	18285
1	65539397	6979	18073
1	65548883	6980	18285
1	65558326	6981	18073
1	65567745	6982	18126
1	65577063	6983	17967
1	65586439	6984	17914
1	65595759	6985	17967
1	65605071	6986	17914
1	65614365	6987	17755
1	65623701	6988	17967
1	65633034	6989	17861
1	65642327	6990	17861
1	65651674	6991	17861
1	65661029	6992	18126
1	65670297	6993	17755
1	65679520	6994	17702
1	65688728	6995	17702
1	65697934	6996	17702
1	65707229	6997	17755
1	65716502	6998	17808
1	65725691	6999	17755
1	65734958	7000	17702
1	65744244	7001	17861
1	65753393	7002	17543
1	65762503	7003	17596
1	65771641	7004	17543
1	65780800	7005	17543
1	65789947	7006	17596
1	65799037	7007	17437
1	65808060	7008	17278
1	65817112	7009	17490
1	65826181	7010	17331
1	65835239	7011	17437
1	65844325	7012	17437
1	65853349	7013	17384
1	65862345	7014	17225
1	65871304	7015	17225
1	65880272	7016	17172
1	65889194	7017	17225
1	65898069	7018	17066
1	65906922	7019	16960
1	65915782	7020	16960
1	65924767	7021	17225
1	65933588	7022	17013
1	65942511	7023	17066
1	65951485	7024	17172
1	65960421	7025	17225
1	65969323	7026	17119
1	65978131	7027	16907
1	65986958	7028	16907
1	65995776	7029	16960
1	66004593	7030	16960
1	66013448	7031	16960
1	66022307	7032	16960
1	66031119	7033	16960
1	66039998	7034	17013
1	66049077	7035	17596
1	66058131	7036	17331
1	66067177	7037	17384
1	66076166	7038	17278
1	66085117	7039	17172
1	66093938	7040	16960
1	66102921	7041	17225
1	66111917	7042	17331
1	66120854	7043	17119
1	66129871	7044	17437
1	66138760	7045	16960
1	66147686	7046	17172
1	66156550	7047	17066
1	66165295	7048	16801
1	66174083	7049	16907
1	66182973	7050	17013
1	66191793	7051	17013
1	66200511	7052	16589
1	66209264	7053	16907
1	66218035	7054	16960
1	66226752	7055	16536
1	66235554	7056	16907
1	66244315	7057	16801
1	66253107	7058	16907
1	66261854	7059	16748
1	66270580	7060	16801
1	66279345	7061	16695
1	66288111	7062	16854
1	66296883	7063	16854
1	66305663	7064	16854
1	66314532	7065	17066
1	66323394	7066	17013
1	66332172	7067	16748
1	66340982	7068	16960
1	66349798	7069	16854
1	66358603	7070	17066
1	66367388	7071	16748
1	66376126	7072	16695
1	66384895	7073	16960
1	66393611	7074	16695
1	66402467	7075	17066
1	66411291	7076	16907
1	66420137	7077	16960
1	66428902	7078	16748
1	66437794	7079	17119
1	66446586	7080	16854
1	66455381	7081	16854
1	66464081	7082	16695
1	66472885	7083	16854
1	66481685	7084	16960
1	66490503	7085	16907
1	66499336	7086	17013
1	66508136	7087	16907
1	66516929	7088	16801
1	66525810	7089	17013
1	66534688	7090	16960
1	66543570	7091	17013
1	66552436	7092	16960
1	66561358	7093	17172
1	66570319	7094	17172
1	66579260	7095	17119
1	66588197	7096	17172
1	66597119	7097	17172
1	66606144	7098	17331
1	66615173	7099	17331
1	66624236	7100	17437
1	66633324	7101	17490
1	66642322	7102	17225
1	66651407	7103	17331
1	66660439	7104	17331
1	66669543	7105	17702
1	66678587	7106	17384
1	66687606	7107	17225
1	66696563	7108	17172
1	66705519	7109	17172
1	66714463	7110	17225
1	66723459	7111	17278
1	66732434	7112	17172
1	66741404	7113	17225
1	66750331	7114	17225
1	66759408	7115	17437
1	66768423	7116	17225
1	66777384	7117	17278
1	66786356	7118	17278
1	66795334	7119	17225
1	66804249	7120	17066
1	66813183	7121	17225
1	66822153	7122	17225
1	66831115	7123	17119
1	66839991	7124	17013
1	66848882	7125	17278
1	66857901	7126	17172
1	66866936	7127	17384
1	66876006	7128	17384
1	66885063	7129	17384
1	66894124	7130	17437
1	66903229	7131	17543
1	66912243	7132	17384
1	66921245	7133	17225
1	66930178	7134	17172
1	66939228	7135	17384
1	66948195	7136	17172
1	66957218	7137	17278
1	66966267	7138	17490
1	66975299	7139	17225
1	66984376	7140	17437
1	66993475	7141	17490
1	67002453	7142	17225
1	67011430	7143	17278
1	67020448	7144	17384
1	67029515	7145	17331
1	67038674	7146	17490
1	67047756	7147	17543
1	67056813	7148	17331
1	67065913	7149	17543
1	67074971	7150	17331
1	67084067	7151	17384
1	67093204	7152	17755
1	67102344	7153	17384
1	67111414	7154	17543
1	67120495	7155	17437
1	67129477	7156	17225
1	67138468	7157	17225
1	67147469	7158	17331
1	67156609	7159	17596
1	67165743	7160	17437
1	67174906	7161	17702
1	67184051	7162	17649
1	67193103	7163	17331
1	67202089	7164	17331
1	67211084	7165	17172
1	67220143	7166	17543
1	67229174	7167	17225
1	67238318	7168	17596
1	67247433	7169	17543
1	67256607	7170	17596
1	67265857	7171	17649
1	67275027	7172	17702
1	67284247	7173	17702
1	67293391	7174	17649
1	67302643	7175	17755
1	67311908	7176	17755
1	67321166	7177	17808
1	67330442	7178	17755
1	67339787	7179	17967
1	67349071	7180	17808
1	67358379	7181	17808
1	67367678	7182	17914
1	67376956	7183	17861
1	67386338	7184	18020
1	67395707	7185	18020
1	67404963	7186	17702
1	67414163	7187	17702
1	67423459	7188	17755
1	67432684	7189	17755
1	67442001	7190	17914
1	67451301	7191	17967
1	67460543	7192	17649
1	67469807	7193	17808
1	67479122	7194	17861