version 2
run AimdCC-3-20100909-13:59:39-5456
attr configname AimdCC
attr datetime 20100909-13:59:39
attr delay 1000ms
attr experiment AimdCC
attr inifile D:/Developement/Oversim2/multic/simulations/omnetpp.ini
attr iterationvars $delay=1000ms
attr iterationvars2 "$delay=1000ms, $repetition=0"
attr measurement $delay=1000ms
attr network oversim.underlay.simpleunderlay.SimpleUnderlayNetwork
attr processid 5456
attr repetition 0
attr replication #0
attr resultdir results
attr runnumber 3
attr seedset 3

vector 1  SimpleUnderlayNetwork.globalObserver.globalStatistics  incoming_bytes  ETV
vector 2  SimpleUnderlayNetwork.globalObserver.globalStatistics  drops  ETV
vector 3  SimpleUnderlayNetwork.globalObserver.globalStatistics  delayed_acks  ETV
vector 4  SimpleUnderlayNetwork.globalObserver.globalStatistics  timetotimeouts  ETV
vector 5  SimpleUnderlayNetwork.globalObserver.globalStatistics  9rateOf1To0  ETV
vector 6  SimpleUnderlayNetwork.globalObserver.globalStatistics  max9RateOf1To0  ETV
vector 7  SimpleUnderlayNetwork.globalObserver.globalStatistics  9rateOf1To1  ETV
vector 8  SimpleUnderlayNetwork.globalObserver.globalStatistics  max9RateOf1To1  ETV
vector 9  SimpleUnderlayNetwork.globalObserver.globalStatistics  9rateOf1To2  ETV
vector 10  SimpleUnderlayNetwork.globalObserver.globalStatistics  max9RateOf1To2  ETV
vector 11  SimpleUnderlayNetwork.globalObserver.globalStatistics  9rateOf1To3  ETV
vector 12  SimpleUnderlayNetwork.globalObserver.globalStatistics  max9RateOf1To3  ETV
vector 13  SimpleUnderlayNetwork.globalObserver.globalStatistics  9rateOf1To4  ETV
vector 14  SimpleUnderlayNetwork.globalObserver.globalStatistics  max9RateOf1To4  ETV
vector 15  SimpleUnderlayNetwork.globalObserver.globalStatistics  9rateOf1To5  ETV
vector 16  SimpleUnderlayNetwork.globalObserver.globalStatistics  max9RateOf1To5  ETV
vector 17  SimpleUnderlayNetwork.globalObserver.globalStatistics  9rateOf1To6  ETV
vector 18  SimpleUnderlayNetwork.globalObserver.globalStatistics  max9RateOf1To6  ETV
vector 19  SimpleUnderlayNetwork.globalObserver.globalStatistics  9rateOf1To7  ETV
vector 20  SimpleUnderlayNetwork.globalObserver.globalStatistics  max9RateOf1To7  ETV
vector 21  SimpleUnderlayNetwork.globalObserver.globalStatistics  9rateOf1To8  ETV
vector 22  SimpleUnderlayNetwork.globalObserver.globalStatistics  max9RateOf1To8  ETV
vector 23  SimpleUnderlayNetwork.globalObserver.globalStatistics  9rateOf1To9  ETV
vector 24  SimpleUnderlayNetwork.globalObserver.globalStatistics  max9RateOf1To9  ETV
vector 25  SimpleUnderlayNetwork.globalObserver.globalStatistics  1rate  ETV
vector 26  SimpleUnderlayNetwork.globalObserver.globalStatistics  max2Rate  ETV
vector 27  SimpleUnderlayNetwork.globalObserver.globalStatistics  "GlobalNodeList: Number of nodes"  ETV
vector 28  SimpleUnderlayNetwork.globalObserver.globalStatistics  "GlobalNodeList: Number of bootstrapped malicious nodes"  ETV
1	20639142	6019	6360
1	20642571	6020	6413
1	20646024	6021	6254
1	20649484	6022	6413
1	20652927	6023	6519
1	20656389	6024	6201
1	20659819	6025	6307
1	20663243	6026	6572
1	20666720	6027	6254
1	20670136	6028	6413
1	20673565	6029	6360
1	20677015	6030	6148
1	20680411	6031	6413
1	20683869	6032	6466
1	20687341	6033	6360
1	20690770	6034	6360
1	20694198	6035	6307
1	20697669	6036	6519
1	20701074	6037	6095
1	20704525	6038	6519
1	20707966	6039	6360
1	20711429	6040	6254
1	20714880	6041	6466
1	20718321	6042	6307
1	20721761	6043	6307
1	20725179	6044	6466
1	20728651	6045	6307
1	20732111	6046	6625
1	20735530	6047	6201
1	20738969	6048	6360
1	20742409	6049	6254
1	20745847	6050	6572
1	20749281	6051	6201
1	20752738	6052	6466
1	20756160	6053	6201
1	20759575	6054	6360
1	20763049	6055	6413
1	20766517	6056	6466
1	20769923	6057	6413
1	20773357	6058	6148
1	20776789	6059	6307
1	20780258	6060	6413
1	20783712	6061	6466
1	20787180	6062	6307
1	20790581	6063	6307
1	20794000	6064	6360
1	20797413	6065	6307
1	20800844	6066	6466
1	20804310	6067	6201
1	20807721	6068	6625
1	20811179	6069	6201
1	20814639	6070	6413
1	20818063	6071	6360
1	20821521	6072	6201
1	20824945	6073	6466
1	20828402	6074	6307
1	20831866	6075	6413
1	20835331	6076	6466
1	20838768	6077	6360
1	20842164	6078	6095
1	20845601	6079	6466
1	20849038	6080	6466
1	20852490	6081	6095
1	20855925	6082	6413
1	20859355	6083	6360
1	20862797	6084	6466
1	20866262	6085	6360
1	20869702	6086	6466
1	20873155	6087	6307
1	20876596	6088	6413
1	20880031	6089	6307
1	20883472	6090	6466
1	20886880	6091	6254
1	20890349	6092	6360
1	20893756	6093	6466
1	20897214	6094	6148
1	20900687	6095	6519
1	20904100	6096	6519
1	20907507	6097	6042
1	20910952	6098	6254
1	20914419	6099	6678
1	20917887	6100	6095
1	20921327	6101	6625
1	20924775	6102	6360
1	20928198	6103	6254
1	20931657	6104	6307
1	20935096	6105	6360
1	20938535	6106	6519
1	20941973	6107	6254
1	20945384	6108	6519
1	20948868	6109	6254
1	20952292	6110	6466
1	20955723	6111	6148
1	20959184	6112	6519
1	20962622	6113	6148
1	20966011	6114	6572
1	20969468	6115	6254
1	20972918	6116	6201
1	20976358	6117	6519
1	20979821	6118	6413
1	20983258	6119	6307
1	20986714	6120	6360
1	20990130	6121	6519
1	20993579	6122	6201
1	20997044	6123	6413
1	21000442	6124	6254
1	21003912	6125	6360
1	21007340	6126	6360
1	21010772	6127	6466
1	21014218	6128	6466
1	21017700	6129	6148
1	21021124	6130	6413
1	21024569	6131	6360
1	21027986	6132	6519
1	21031409	6133	6148
1	21034881	6134	6519
1	21038288	6135	6413
1	21041779	6136	6148
1	21045228	6137	6625
1	21048637	6138	6095
1	21052055	6139	6413
1	21055527	6140	6360
1	21058945	6141	6413
1	21062366	6142	6307
1	21065853	6143	6307
1	21069291	6144	6360
1	21072754	6145	6572
1	21076159	6146	6254
1	21079590	6147	6466
1	21083042	6148	6307
1	21086482	6149	6360
1	21089942	6150	6360
1	21093376	6151	6148
1	21096834	6152	6519
1	21100243	6153	6254
1	21103688	6154	6413
1	21107156	6155	6307
1	21110573	6156	6413
1	21114023	6157	6413
1	21117440	6158	6201
1	21120926	6159	6731
1	21124378	6160	6254
1	21127808	6161	6148
1	21131213	6162	6413
1	21134686	6163	6360
1	21138090	6164	6360
1	21141530	6165	6360
1	21144955	6166	6307
1	21148398	6167	6201
1	21151846	6168	6625
1	21155272	6169	6307
1	21158732	6170	6413
1	21162206	6171	6307
1	21165658	6172	6413
1	21169071	6173	6095
1	21172493	6174	6731
1	21175941	6175	6254
1	21179388	6176	6254
1	21182845	6177	6466
1	21186274	6178	6307
1	21189712	6179	6307
1	21193167	6180	6519
1	21196618	6181	6254
1	21200049	6182	6254
1	21203464	6183	6466
1	21206906	6184	6360
1	21210356	6185	6307
1	21213788	6186	6413
1	21217248	6187	6360
1	21220668	6188	6360
1	21224116	6189	6307
1	21227551	6190	6360
1	21231014	6191	6519
1	21234456	6192	6254
1	21237890	6193	6466
1	21241346	6194	6148
1	21244764	6195	6625
1	21248225	6196	6095
1	21251664	6197	6519
1	21255083	6198	6201
1	21258526	6199	6413
1	21261989	6200	6360
1	21265419	6201	6466
1	21268892	6202	6307
1	21272333	6203	6360
1	21275761	6204	6307
1	21279230	6205	6678
1	21282651	6206	6254
1	21286081	6207	6148
1	21289498	6208	6254
1	21292932	6209	6360
1	21296372	6210	6572
1	21299801	6211	6413
1	21303254	6212	6254
1	21306733	6213	6360
1	21310152	6214	6466
1	21313581	6215	6254
1	21317037	6216	6254
1	21320502	6217	6519
1	21323919	6218	6413
1	21327387	6219	6360
1	21330809	6220	6254
1	21334242	6221	6307
1	21337687	6222	6360
1	21341121	6223	6413
1	21344561	6224	6254
1	21348020	6225	6572
1	21351442	6226	6254
1	21354904	6227	6466
1	21358306	6228	6254
1	21361737	6229	6360
1	21365194	6230	6466
1	21368652	6231	6201
1	21372120	6232	6466
1	21375530	6233	6413
1	21378946	6234	6360
1	21382375	6235	6095
1	21385858	6236	6466
1	21389296	6237	6254
1	21392742	6238	6413
1	21396156	6239	6572
1	21399647	6240	6413
1	21403091	6241	6201
1	21406512	6242	6625
1	21409947	6243	6095
1	21413405	6244	6307
1	21416820	6245	6254
1	21420278	6246	6784
1	21423725	6247	6042
1	21427197	6248	6466
1	21430626	6249	6254
1	21434058	6250	6572
1	21437457	6251	6307
1	21440920	6252	6254
1	21444375	6253	6360
1	21447785	6254	6307
1	21451246	6255	6413
1	21454676	6256	6307
1	21458132	6257	6466
1	21461565	6258	6307
1	21465020	6259	6413
1	21468438	6260	6254
1	21471858	6261	6466
1	21475307	6262	6148
1	21478763	6263	6519
1	21482225	6264	6307
1	21485665	6265	6360
1	21489080	6266	6413
1	21492525	6267	6254
1	21495962	6268	6519
1	21499398	6269	6413
1	21502866	6270	6307
1	21506295	6271	6254
1	21509737	6272	6360
1	21513163	6273	6254
1	21516615	6274	6519
1	21520094	6275	6413
1	21523503	6276	6413
1	21526929	6277	6254
1	21530389	6278	6201
1	21533824	6279	6360
1	21537241	6280	6466
1	21540697	6281	6413
1	21544114	6282	6519
1	21547583	6283	6254
1	21551057	6284	6201
1	21554511	6285	6625
1	21557943	6286	6254
1	21561335	6287	6360
1	21564767	6288	6148
1	21568197	6289	6360
1	21571641	6290	6519
1	21575107	6291	6148
1	21578534	6292	6678
1	21582002	6293	6360
1	21585432	6294	6201
1	21588884	6295	6466
1	21592302	6296	6148
1	21595773	6297	6519
1	21599210	6298	6519
1	21602642	6299	6307
1	21606113	6300	6201
1	21609521	6301	6360
1	21612950	6302	6307
1	21616407	6303	6413
1	21619859	6304	6413
1	21623298	6305	6307
1	21626690	6306	6360
1	21630162	6307	6466
1	21633636	6308	6307
1	21637075	6309	6466
1	21640485	6310	6360
1	21643938	6311	6360
1	21647377	6312	6307
1	21650802	6313	6466
1	21654261	6314	5989
1	21657707	6315	6678
1	21661119	6316	6148
1	21664564	6317	6360
1	21667974	6318	6466
1	21671420	6319	6095
1	21674858	6320	6466
1	21678344	6321	6572
1	21681770	6322	6148
1	21685196	6323	6572
1	21688653	6324	6254
1	21692108	6325	6413
1	21695553	6326	6254
1	21698980	6327	6466
1	21702438	6328	6466
1	21705847	6329	6201
1	21709288	6330	6307
1	21712736	6331	6625
1	21716176	6332	6148
1	21719613	6333	6307
1	21723054	6334	6572
1	21726476	6335	6095
1	21729967	6336	6466
1	21733396	6337	6360
1	21736832	6338	6307
1	21740281	6339	6572
1	21743713	6340	6254
1	21747180	6341	6413
1	21750605	6342	6466
1	21754028	6343	6201
1	21757455	6344	6307
1	21760915	6345	6466
1	21764339	6346	6413
1	21767807	6347	6148
1	21771277	6348	6572
1	21774696	6349	6148
1	21778119	6350	6519
1	21781574	6351	6307
1	21785035	6352	6360
1	21788465	6353	6360
1	21791885	6354	6360
1	21795315	6355	6360
1	21798784	6356	6254
1	21802194	6357	6413
1	21805654	6358	6360
1	21809060	6359	6466
1	21812531	6360	6148
1	21815981	6361	6572
1	21819438	6362	6254
1	21822895	6363	6678
1	21826330	6364	6148
1	21829763	6365	6307
1	21833204	6366	6360
1	21836660	6367	6466
1	21840096	6368	6466
1	21843525	6369	6148
1	21846917	6370	6307
1	21850388	6371	6466
1	21853842	6372	6201
1	21857293	6373	6572
1	21860730	6374	6466
1	21864168	6375	5989
1	21867591	6376	6466
1	21871013	6377	6413
1	21874482	6378	6519
1	21877936	6379	6201
1	21881345	6380	6360
1	21884813	6381	6307
1	21888255	6382	6307
1	21891687	6383	6519
1	21895113	6384	6307
1	21898542	6385	6413
1	21901995	6386	6254
1	21905436	6387	6466
1	21908862	6388	6254
1	21912323	6389	6254
1	21915738	6390	6413
1	21919213	6391	6519
1	21922650	6392	6254
1	21926071	6393	6466
1	21929512	6394	6148
1	21932939	6395	6413
1	21936402	6396	6413
1	21939858	6397	6519
1	21943299	6398	6254
1	21946729	6399	6360
1	21950207	6400	6254
1	21953646	6401	6678
1	21957064	6402	6148
1	21960500	6403	6360
1	21963918	6404	6254
1	21967368	6405	6360
1	21970820	6406	6307
1	21974275	6407	6572
1	21977699	6408	6466
1	21981146	6409	6201
1	21984585	6410	6360
1	21988060	6411	6572
1	21991461	6412	6148
1	21994894	6413	6254
1	21998326	6414	6519
1	22001774	6415	6413
1	22005208	6416	6254
1	22008639	6417	6254
1	22012111	6418	6519
1	22015576	6419	6360
1	22018996	6420	6254
1	22022465	6421	6413
1	22025916	6422	6466
1	22029366	6423	6360
1	22032797	6424	6307
1	22036252	6425	6466
1	22039660	6426	6360
1	22043113	6427	6307
1	22046529	6428	6148
1	22049976	6429	6519
1	22053434	6430	6360
1	22056889	6431	6307
1	22060340	6432	6307
1	22063765	6433	6413
1	22067178	6434	6413
1	22070622	6435	6307
1	22074051	6436	6307
1	22077478	6437	6360
1	22080891	6438	6148
1	22084352	6439	6572
1	22087814	6440	6360
1	22091243	6441	6307
1	22094714	6442	6466
1	22098144	6443	6413
1	22101607	6444	6413
1	22105016	6445	6307
1	22108478	6446	6307
1	22111971	6447	6413
1	22115372	6448	6254
1	22118840	6449	6625
1	22122260	6450	6307
1	22125685	6451	6307
1	22129127	6452	6148
1	22132534	6453	6466
1	22135970	6454	6307
1	22139428	6455	6307
1	22142883	6456	6678
1	22146319	6457	6042
1	22149749	6458	6466
1	22153196	6459	6413
1	22156652	6460	6413
1	22160051	6461	6201
1	22163503	6462	6519
1	22166937	6463	6201
1	22170404	6464	6360
1	22173903	6465	6413
1	22177328	6466	6466
1	22180731	6467	6360
1	22184208	6468	6413
1	22187653	6469	6148
1	22191080	6470	6519
1	22194465	6471	6201
1	22197918	6472	6413
1	22201394	6473	6254
1	22204801	6474	6413
1	22208268	6475	6307
1	22211725	6476	6625
1	22215165	6477	6254
1	22218596	6478	6254
1	22222034	6479	6678
1	22225463	6480	5989
1	22228911	6481	6625
1	22232321	6482	6254
1	22235785	6483	6254
1	22239204	6484	6360
1	22242640	6485	6466
1	22246085	6486	6307
1	22249530	6487	6307
1	22252969	6488	6413
1	22256427	6489	6201
1	22259866	6490	6572
1	22263301	6491	6519
1	22266766	6492	6148
1	22270224	6493	6413
1	22273652	6494	6307
1	22277090	6495	6466
1	22280510	6496	6307
1	22283957	6497	6201
1	22287403	6498	6519
1	22290834	6499	6254
1	22294243	6500	6307
1	22297728	6501	6519
1	22301167	6502	6413
1	22304589	6503	6201
1	22308065	6504	6413
1	22311490	6505	6413
1	22314927	6506	6360
1	22318392	6507	6413
1	22321824	6508	6307
1	22325248	6509	6201
1	22328699	6510	6731
1	22332133	6511	6148
1	22335551	6512	6360
1	22339007	6513	6307
1	22342455	6514	6413
1	22345895	6515	6254
1	22349304	6516	6201
1	22352751	6517	6413
1	22356237	6518	6519
1	22359681	6519	6254
1	22363111	6520	6307
1	22366557	6521	6519
1	22369964	6522	6307
1	22373407	6523	6307
1	22376847	6524	6360
1	22380314	6525	6625
1	22383779	6526	6201
1	22387203	6527	6413
1	22390639	6528	6360
1	22394067	6529	6148
1	22397522	6530	6519
1	22400966	6531	6360
1	22404394	6532	6201
1	22407827	6533	6572
1	22411258	6534	6360
1	22414733	6535	6254
1	22418149	6536	6519
1	22421601	6537	6254
1	22425045	6538	6413
1	22428495	6539	6413
1	22431970	6540	6360
1	22435383	6541	6201
1	22438801	6542	6413
1	22442212	6543	6360
1	22445682	6544	6466
1	22449152	6545	6307
1	22452573	6546	6413
1	22456018	6547	6466
1	22459456	6548	6254
1	22462853	6549	6148
1	22466348	6550	6572
1	22469789	6551	6307
1	22473223	6552	6413
1	22476670	6553	6307
1	22480141	6554	6201
1	22483549	6555	6572
1	22487031	6556	6360
1	22490475	6557	6307
1	22493869	6558	6307
1	22497332	6559	6572
1	22500775	6560	6042
1	22504196	6561	6519
1	22507647	6562	6360
1	22511054	6563	6307
1	22514469	6564	6201
1	22517912	6565	6519
1	22521342	6566	6307
1	22524827	6567	6360
1	22528258	6568	6254
1	22531704	6569	6519
1	22535129	6570	6466
1	22538606	6571	6201
1	22542022	6572	6360
1	22545492	6573	6254
1	22548904	6574	6625
1	22552344	6575	6095
1	22555824	6576	6466
1	22559244	6577	6360
1	22562713	6578	6519
1	22566112	6579	6095
1	22569566	6580	6466
1	22573007	6581	6572
1	22576426	6582	6360
1	22579879	6583	6201
1	22583291	6584	6360
1	22586758	6585	6466
1	22590225	6586	6148
1	22593651	6587	6572
1	22597080	6588	6254
1	22600518	6589	6360
1	22603965	6590	6413
1	22607414	6591	6360
1	22610855	6592	6307
1	22614260	6593	6148
1	22617750	6594	6625
1	22621192	6595	6360
1	22624616	6596	6360
1	22628051	6597	6254
1	22631521	6598	6413
1	22634928	6599	6201
1	22638359	6600	6519
1	22641836	6601	6572
1	22645262	6602	5989
1	22648706	6603	6572
1	22652095	6604	6201
1	22655531	6605	6519
1	22658985	6606	6307
1	22662464	6607	6413
1	22665925	6608	6254
1	22669322	6609	6413
1	22672766	6610	6360
1	22676229	6611	6307
1	22679664	6612	6413
1	22683111	6613	6360
1	22686569	6614	6360
1	22690009	6615	6625
1	22693450	6616	6254
1	22696907	6617	6201
1	22700329	6618	6360
1	22703789	6619	6360
1	22707196	6620	6413
1	22710655	6621	6201
1	22714073	6622	6360
1	22717511	6623	6519
1	22720954	6624	6148
1	22724406	6625	6625
1	22727850	6626	6254
1	22731327	6627	6466
1	22734731	6628	6148
1	22738153	6629	6360
1	22741610	6630	6572
1	22745029	6631	6148
1	22748484	6632	6572
1	22751923	6633	6254
1	22755400	6634	6254
1	22758834	6635	6413
1	22762255	6636	6519
1	22765708	6637	6201
1	22769132	6638	6413
1	22772590	6639	6254
1	22776027	6640	6519
1	22779465	6641	6307
1	22782915	6642	6254
1	22786353	6643	6519
1	22789773	6644	6519
1	22793223	6645	6095
1	22796657	6646	6466
1	22800099	6647	6360
1	22803526	6648	6201
1	22806959	6649	6466
1	22810428	6650	6360
1	22813899	6651	6307
1	22817348	6652	6413
1	22820783	6653	6466
1	22824204	6654	6360
1	22827647	6655	6148
1	22831091	6656	6466
1	22834520	6657	6413
1	22837968	6658	6413
1	22841436	6659	6201
1	22844842	6660	6413
1	22848288	6661	6519
1	22851732	6662	6201
1	22855153	6663	6413
1	22858612	6664	6307
1	22862008	6665	6254
1	22865506	6666	6413
1	22868916	6667	6360
1	22872370	6668	6572
1	22875781	6669	6201
1	22879252	6670	6307
1	22882701	6671	6466
1	22886140	6672	6254
1	22889567	6673	6360
1	22893038	6674	6413
1	22896518	6675	6466
1	22899934	6676	6254
1	22903368	6677	6519
1	22906794	6678	6201
1	22910196	6679	6095
1	22913667	6680	6625
1	22917135	6681	6254
1	22920581	6682	6466
1	22924016	6683	6519
1	22927439	6684	6042
1	22930871	6685	6625
1	22934308	6686	6254
1	22937755	6687	6466
1	22941213	6688	6307
1	22944656	6689	6307
1	22948113	6690	6413
1	22951548	6691	6360
1	22954960	6692	6307
1	22958421	6693	6360
1	22961868	6694	6307
1	22965307	6695	6625
1	22968759	6696	6148
1	22972188	6697	6307
1	22975612	6698	6413
1	22979084	6699	6466
1	22982499	6700	6413
1	22985917	6701	6148
1	22989347	6702	6466
1	22992773	6703	6307
1	22996225	6704	6360
1	22999691	6705	6413
1	23003134	6706	6307
1	23006557	6707	6307
1	23010039	6708	6466
1	23013479	6709	6307
1	23016896	6710	6466
1	23020319	6711	5936
1	23023793	6712	6625
1	23027230	6713	6360
1	23030651	6714	6413
1	23034071	6715	6307
1	23037526	6716	6678
1	23040975	6717	6042
1	23044437	6718	6254
1	23047868	6719	6572
1	23051304	6720	6360
1	23054728	6721	6307
1	23058195	6722	6360
1	23061661	6723	6466
1	23065043	6724	6307
1	23068494	6725	6148
1	23071928	6726	6307
1	23075398	6727	6625
1	23078867	6728	6413
1	23082313	6729	6254
1	23085726	6730	6466
1	23089177	6731	6307
1	23092571	6732	6307
1	23095992	6733	6095
1	23099452	6734	6572
1	23102905	6735	6307
1	23106358	6736	6413
1	23109823	6737	6360
1	23113246	6738	6678
1	23116673	6739	6095
1	23120144	6740	6413
1	23123563	6741	6254
1	23127038	6742	6360
1	23130469	6743	6519
1	23133912	6744	6254
1	23137337	6745	6519
1	23140785	6746	6095
1	23144219	6747	6466
1	23147645	6748	6466
1	23151092	6749	6201
1	23154509	6750	6413
1	23157975	6751	6360
1	23161430	6752	6360
1	23164863	6753	6307
1	23168273	6754	6307
1	23171733	6755	6413
1	23175185	6756	6466
1	23178604	6757	6254
1	23182064	6758	6413
1	23185506	6759	6572
1	23188908	6760	6201
1	23192388	6761	6413
1	23195847	6762	6254
1	23199276	6763	6307
1	23202691	6764	6413
1	23206145	6765	6519
1	23209586	6766	6360
1	23213034	6767	6201
1	23216482	6768	6466
1	23219912	6769	6307
1	23223362	6770	6148
1	23226810	6771	6519
1	23230245	6772	6466
1	23233678	6773	6254
1	23237125	6774	6466
1	23240586	6775	6254
1	23244028	6776	6360
1	23247480	6777	6413
1	23250879	6778	6201
1	23254320	6779	6519
1	23257780	6780	6201
1	23261248	6781	6572
1	23264669	6782	6254
1	23268083	6783	6519
1	23271482	6784	6254
1	23274941	6785	6201
1	23278379	6786	6466
1	23281832	6787	6360
1	23285315	6788	6466
1	23288766	6789	6360
1	23292204	6790	6413
1	23295625	6791	6254
1	23299083	6792	6572
1	23302529	6793	5989
1	23305940	6794	6519
1	23309382	6795	6201
1	23312815	6796	6572
1	23316252	6797	6307
1	23319706	6798	6254
1	23323147	6799	6307
1	23326615	6800	6360
1	23330079	6801	6519
1	23333516	6802	6360
1	23336952	6803	6466
1	23340386	6804	6254
1	23343812	6805	6201
1	23347218	6806	6572
1	23350630	6807	5989
1	23354120	6808	6731
1	23357564	6809	6148
1	23361015	6810	6413
1	23364435	6811	6360
1	23367851	6812	6519
1	23371322	6813	6148
1	23374785	6814	6625
1	23378201	6815	6201
1	23381630	6816	6360
1	23385082	6817	6466
1	23388517	6818	6466
1	23391977	6819	6148
1	23395385	6820	6360
1	23398876	6821	6360
1	23402334	6822	6572
1	23405720	6823	6201
1	23409174	6824	6201
1	23412614	6825	6519
1	23416034	6826	6307
1	23419484	6827	6254
1	23422894	6828	6360
1	23426350	6829	6519
1	23429798	6830	6307
1	23433221	6831	6148
1	23436686	6832	6466
1	23440161	6833	6625
1	23443588	6834	6413
1	23446983	6835	6095
1	23450434	6836	6466
1	23453893	6837	6254
1	23457361	6838	6360
1	23460796	6839	6572
1	23464212	6840	6095
1	23467670	6841	6360
1	23471120	6842	6572
1	23474545	6843	6148
1	23477964	6844	6413
1	23481417	6845	6466
1	23484886	6846	6413
1	23488335	6847	6466
1	23491781	6848	6148
1	23495194	6849	6413
1	23498670	6850	6413
1	23502107	6851	6360
1	23505539	6852	6307
1	23508977	6853	6413
1	23512396	6854	6095
1	23515864	6855	6678
1	23519319	6856	6413
1	23522706	6857	6042
1	23526110	6858	6254
1	23529584	6859	6625
1	23533029	6860	6307
1	23536469	6861	6307
1	23539921	6862	6201
1	23543350	6863	6572
1	23546774	6864	6307
1	23550237	6865	6466
1	23553674	6866	6201
1	23557151	6867	6519
1	23560592	6868	6307
1	23564043	6869	6413
1	23567471	6870	6413
1	23570899	6871	6254
1	23574347	6872	6413
1	23577789	6873	6413
1	23581190	6874	6254
1	23584608	6875	6148
1	23588054	6876	6360
1	23591537	6877	6625
1	23594970	6878	6307
1	23598434	6879	6413
1	23601876	6880	6307
1	23605310	6881	6254
1	23608769	6882	6519
1	23612170	6883	6307
1	23615617	6884	6307
1	23619079	6885	6466
1	23622509	6886	6201
1	23625950	6887	6572
1	23629382	6888	6201
1	23632824	6889	6307
1	23636317	6890	6625
1	23639707	6891	6042
1	23643144	6892	6519
1	23646611	6893	6360
1	23650029	6894	6201
1	23653446	6895	6678
1	23656923	6896	6148
1	23660365	6897	6466
1	23663778	6898	6307
1	23667231	6899	6254
1	23670690	6900	6519
1	23674111	6901	6254
1	23677579	6902	6466
1	23680978	6903	6254
1	23684437	6904	6466
1	23687899	6905	6360
1	23691370	6906	6307
1	23694770	6907	6307
1	23698201	6908	6360
1	23701665	6909	6413
1	23705117	6910	6307
1	23708514	6911	6307
1	23711962	6912	6466
1	23715436	6913	6307
1	23718851	6914	6254
1	23722301	6915	6519
1	23725765	6916	6413
1	23729181	6917	6148
1	23732649	6918	6678
1	23736045	6919	5936
1	23739522	6920	6678
1	23742958	6921	6201
1	23746409	6922	6519
1	23749846	6923	6307
1	23753285	6924	6360
1	23756709	6925	6360
1	23760145	6926	6307
1	23763599	6927	6360
1	23767024	6928	6307
1	23770464	6929	6625
1	23773938	6930	6254
1	23777357	6931	6254
1	23780840	6932	6466
1	23784252	6933	6254
1	23787722	6934	6519
1	23791134	6935	6254
1	23794562	6936	6413
1	23798052	6937	6307
1	23801505	6938	6466
1	23804931	6939	6466
1	23808389	6940	6307
1	23811841	6941	6201
1	23815243	6942	6572
1	23818659	6943	6095
1	23822123	6944	6519
1	23825580	6945	6201
1	23828985	6946	6413
1	23832423	6947	6254
1	23835866	6948	6360
1	23839299	6949	6572
1	23842734	6950	6360
1	23846227	6951	6307
1	23849671	6952	6307
1	23853087	6953	6360
1	23856483	6954	6307
1	23859959	6955	6466
1	23863423	6956	6466
1	23866829	6957	6254
1	23870281	6958	6254
1	23873733	6959	6413
1	23877166	6960	6466
1	23880604	6961	6307
1	23884043	6962	6413
1	23887499	6963	6201
1	23890937	6964	6572
1	23894370	6965	6095
1	23897798	6966	6413
1	23901215	6967	6519
1	23904672	6968	6201
1	23908140	6969	6466
1	23911600	6970	6307
1	23915005	6971	6201
1	23918418	6972	6625
1	23921872	6973	6201
1	23925347	6974	6360
1	23928796	6975	6466
1	23932208	6976	6201
1	23935629	6977	6519
1	23939093	6978	6307
1	23942532	6979	6360
1	23945982	6980	6307
1	23949432	6981	6413
1	23952881	6982	6360
1	23956290	6983	6413
1	23959767	6984	6360
1	23963238	6985	6307
1	23966654	6986	6519
1	23970045	6987	6254
1	23973481	6988	6042
1	23976945	6989	6572
1	23980383	6990	6519
1	23983820	6991	6360
1	23987254	6992	6360
1	23990703	6993	6148
1	23994171	6994	6413
1	23997624	6995	6519
1	24001070	6996	6307
1	24004501	6997	6148
1	24007911	6998	6572
1	24011340	6999	6413
1	24014768	7000	6254
1	24018227	7001	6413
1	24021692	7002	6360
1	24025179	7003	6466
1	24028578	7004	6254
1	24031999	7005	6307
1	24035429	7006	6307
1	24038877	7007	6519
1	24042327	7008	6201
1	24045785	7009	6360
1	24049239	7010	6572
1	24052673	7011	6307
1	24056099	7012	6307
1	24059534	7013	6307
1	24062962	7014	6519
1	24066436	7015	6307
1	24069890	7016	6148
1	24073312	7017	6678
1	24076741	7018	6201
1	24080195	7019	6307
1	24083645	7020	6413
1	24087078	7021	6307
1	24090498	7022	6519
1	24093921	7023	5989
1	24097391	7024	6572
1	24100841	7025	6572
1	24104267	7026	6254
1	24107690	7027	6148
1	24111119	7028	6466
1	24114568	7029	6519
1	24118051	7030	6254
1	24121509	7031	6360
1	24124915	7032	6360
1	24128353	7033	6201
1	24131794	7034	6466
1	24135236	7035	6413
1	24138676	7036	6413
1	24142138	7037	6360
1	24145597	7038	6254
1	24149027	7039	6413
1	24152453	7040	6360
1	24155849	7041	6307
1	24159308	7042	6307
1	24162775	7043	6360
1	24166186	7044	6360
1	24169636	7045	6519
1	24173081	7046	6360
1	24176536	7047	6307
1	24179970	7048	6307
1	24183418	7049	6572
1	24186857	7050	6201
1	24190306	7051	6360
1	24193757	7052	6466
1	24197185	7053	6148
1	24200615	7054	6360
1	24204085	7055	6413
1	24207517	7056	6466
1	24210959	7057	6148
1	24214371	7058	6572
1	24217807	7059	6148
1	24221251	7060	6360
1	24224706	7061	6413
1	24228158	7062	6572
1	24231609	7063	6254
1	24235037	7064	6307
1	24238459	7065	6360
1	24241906	7066	6413
1	24245345	7067	6201
1	24248791	7068	6519
1	24252208	7069	6360
1	24255673	7070	6254
1	24259081	7071	6413
1	24262531	7072	6360
1	24265972	7073	6466
1	24269404	7074	6201
1	24272859	7075	6466
1	24276307	7076	6254
1	24279754	7077	6519
1	24283216	7078	6307
1	24286680	7079	6466
1	24290066	7080	6095
1	24293547	7081	6572
1	24296977	7082	6254
1	24300393	7083	6307
1	24303819	7084	6360
1	24307266	7085	6360
1	24310711	7086	6360
1	24314158	7087	6307
1	24317574	7088	6572
1	24321018	7089	6307
1	24324456	7090	6201
1	24327943	7091	6413
1	24331383	7092	6413
1	24334817	7093	6307
1	24338284	7094	6519
1	24341732	7095	6254
1	24345150	7096	6413
1	24348585	7097	6360
1	24351984	7098	6201
1	24355439	7099	6466
1	24358874	7100	6254
1	24362364	7101	6519
1	24365813	7102	6307
1	24369237	7103	6413
1	24372670	7104	6095
1	24376114	7105	6519
1	24379547	7106	6466
1	24383018	7107	6307
1	24386455	7108	6519
1	24389854	7109	6413
1	24393307	7110	6095
1	24396754	7111	6466
1	24400213	7112	6254
1	24403649	7113	6519
1	24407103	7114	6201
1	24410532	7115	6519
1	24413934	7116	6095
1	24417400	7117	6519
1	24420832	7118	6254
1	24424257	7119	6307
1	24427684	7120	6413
1	24431126	7121	6466
1	24434613	7122	6413
1	24438032	7123	6307
1	24441462	7124	6360
1	24444953	7125	6413
1	24448347	7126	6201
1	24451813	7127	6413
1	24455253	7128	6519
1	24458681	7129	6254
1	24462129	7130	6360
1	24465574	7131	6413
1	24469017	7132	6360
1	24472447	7133	6254
1	24475888	7134	6413
1	24479327	7135	6360
1	24482748	7136	6201
1	24486196	7137	6519
1	24489637	7138	6201
1	24493115	7139	6678
1	24496571	7140	6360
1	24499982	7141	6254
1	24503447	7142	6360
1	24506882	7143	6360
1	24510292	7144	6307
1	24513734	7145	6307
1	24517201	7146	6466
1	24520628	7147	6254
1	24524075	7148	6413
1	24527521	7149	6307
1	24530928	7150	6360
1	24534369	7151	6360
1	24537822	7152	6519
1	24541250	7153	6201
1	24544686	7154	6307
1	24548185	7155	6519
1	24551605	7156	6201
1	24554991	7157	6413
1	24558452	7158	6519
1	24561911	7159	6201
1	24565351	7160	6360
1	24568810	7161	6519
1	24572219	7162	6201
1	24575669	7163	6360
1	24579118	7164	6413
1	24582538	7165	6201
1	24585949	7166	6519
1	24589434	7167	6307
1	24592871	7168	6519
1	24596307	7169	6201
1	24599776	7170	6254
1	24603221	7171	6519
1	24606629	7172	6201
1	24610085	7173	6572
1	24613519	7174	6201
1	24616980	7175	6572
1	24620411	7176	6201
1	24623857	7177	6519
1	24627283	7178	6042
1	24630746	7179	6413
1	24634171	7180	6572
1	24637636	7181	6307
1	24641069	7182	6413
1	24644508	7183	6201
1	24647992	7184	6466
1	24651386	7185	6254
1	24654835	7186	6625
1	24658276	7187	6307
1	24661688	7188	6148
1	24665140	7189	6519
1	24668596	7190	6466
1	24672015	7191	6254
1	24675471	7192	6148
1	24678935	7193	6678
1	24682383	7194	6201
1	24685819	7195	6413
1	24689272	7196	6413
1	24692711	7197	6360
1	24696140	7198	6307
1	24699555	7199	6360
1	24702980	7200	6095
1	24706449	7201	6731
1	24709896	7202	6254
1	24713355	7203	6413
1	24716780	7204	6095
1	24720219	7205	6466
1	24723649	7206	6466
1	24727120	7207	6466
1	24730572	7208	6201
1	24733970	7209	6360
1	24737400	7210	6360
1	24740825	7211	6360
1	24744283	7212	6307
1	24747727	7213	6466
1	24751172	7214	6148
1	24754605	7215	6625
1	24758039	7216	6095
1	24761485	7217	6466
1	24764965	7218	6466
1	24768381	7219	6307
1	24771847	7220	6307
1	24775281	7221	6466
1	24778698	7222	6201
1	24782148	7223	6466
1	24785556	7224	6307
1	24789035	7225	6519
1	24792448	7226	6148
1	24795916	7227	6519
1	24799346	7228	6307
1	24802778	7229	6307
1	24806229	7230	6360
1	24809666	7231	6572
1	24813098	7232	6307
1	24816556	7233	6307
1	24820015	7234	6466
1	24823446	7235	6201
1	24826849	7236	6466
1	24830292	7237	6042
1	24833726	7238	6572
1	24837198	7239	6413
1	24840656	7240	6360
1	24844098	7241	6254
1	24847525	7242	6413
1	24850983	7243	6307
1	24854389	7244	6466
1	24857819	7245	6254
1	24861283	7246	6307
1	24864716	7247	6519