version 2
run BasicCC-0-20100909-13:59:57-504
attr configname BasicCC
attr datetime 20100909-13:59:57
attr delay 50ms
attr experiment BasicCC
attr inifile D:/Developement/Oversim2/multic/simulations/omnetpp.ini
attr iterationvars $delay=50ms
attr iterationvars2 "$delay=50ms, $repetition=0"
attr measurement $delay=50ms
attr network oversim.underlay.simpleunderlay.SimpleUnderlayNetwork
attr processid 504
attr repetition 0
attr replication #0
attr resultdir results
attr runnumber 0
attr seedset 0

vector 1  SimpleUnderlayNetwork.globalObserver.globalStatistics  incoming_bytes  ETV
vector 2  SimpleUnderlayNetwork.globalObserver.globalStatistics  drops  ETV
vector 3  SimpleUnderlayNetwork.globalObserver.globalStatistics  delayed_acks  ETV
vector 4  SimpleUnderlayNetwork.globalObserver.globalStatistics  "GlobalNodeList: Number of nodes"  ETV
vector 5  SimpleUnderlayNetwork.globalObserver.globalStatistics  "GlobalNodeList: Number of bootstrapped malicious nodes"  ETV
1	78052334	517	3763
1	78208404	518	4081
1	78364587	519	4558
1	78520528	520	4717
1	78676608	521	3498
1	78832653	522	3445
1	78988764	523	4664
1	79144813	524	3816
1	79300832	525	4293
1	79456969	526	4505
1	79613134	527	3869
1	79769155	528	3975
1	79925173	529	4240
1	80081230	530	3339
1	80237392	531	4134
1	80393445	532	4399
1	80549538	533	3763
1	80705683	534	3869
1	80861690	535	4134
1	81017804	536	3445
1	81173813	537	4187
1	81329927	538	3339
1	81485898	539	4028
1	81642134	540	4187
1	81798241	541	4452
1	81954305	542	4611
1	82110305	543	3657
1	82266416	544	3975
1	82422474	545	4399
1	82578553	546	4240
1	82734690	547	3392
1	82890647	548	4081
1	83046927	549	5459
1	83202808	550	3498
1	83358946	551	4505
1	83515087	552	3551
1	83671033	553	3869
1	83827160	554	4929
1	83983307	555	3869
1	84139286	556	3710
1	84295377	557	4611
1	84451559	558	4558
1	84607627	559	3763
1	84763668	560	3604
1	84919712	561	4611
1	85075775	562	4081
1	85231919	563	4611
1	85387999	564	4240
1	85544092	565	4028
1	85700143	566	3710
1	85856168	567	4293
1	86012369	568	3445
1	86168307	569	4346
1	86324358	570	3339
1	86480413	571	3710
1	86636662	572	4134
1	86792691	573	3975
1	86948807	574	4346
1	87104768	575	4823
1	87260973	576	4240
1	87417010	577	3445
1	87572874	578	4134
1	87729072	579	4611
1	87885227	580	3763
1	88041182	581	3657
1	88197250	582	3392
1	88353376	583	3551
1	88509594	584	4399
1	88665599	585	4452
1	88821683	586	3869
1	88977782	587	4505
1	89133790	588	3339
1	89289906	589	3816
1	89445981	590	3657
1	89602007	591	4558
1	89758134	592	4505
1	89914264	593	3975
1	90070233	594	3657
1	90226334	595	4028
1	90382464	596	4134
1	90538488	597	4028
1	90694617	598	4240
1	90850718	599	3763
1	91006730	600	4346
1	91162757	601	3922
1	91318791	602	3763
1	91474947	603	3657
1	91631068	604	3869
1	91787084	605	4028
1	91943175	606	3657
1	92099196	607	4028
1	92255337	608	3498
1	92411451	609	4293
1	92567537	610	4611
1	92723660	611	4134
1	92879543	612	3339
1	93035687	613	3339
1	93191797	614	3286
1	93347797	615	3816
1	93503960	616	3710
1	93659937	617	3922
1	93816055	618	3604
1	93972184	619	4664
1	94128195	620	4399
1	94284244	621	3339
1	94440442	622	4240
1	94596416	623	3975
1	94752520	624	3816
1	94908631	625	3657
1	95064638	626	3392
1	95220710	627	4293
1	95376847	628	3657
1	95532913	629	3710
1	95688980	630	4611
1	95845126	631	3710
1	96001172	632	4028
1	96157014	633	4028
1	96313226	634	4240
1	96469348	635	3922
1	96625430	636	3922
1	96781492	637	4134
1	96937536	638	3816
1	97093561	639	4929
1	97249778	640	3975
1	97405830	641	4611
1	97561863	642	4081
1	97718099	643	3816
1	97874147	644	4505
1	98030185	645	4187
1	98186271	646	3604
1	98342212	647	3551
1	98498276	648	3869
1	98654482	649	3975
1	98810516	650	3445
1	98966585	651	4134
1	99122674	652	4187
1	99278742	653	4187
1	99434754	654	3816
1	99590876	655	3498
1	99746979	656	4399
1	99903005	657	4240
1	100059190	658	4452
1	100215254	659	4823
1	100371314	660	4081
1	100527396	661	3975
1	100683457	662	4134
1	100839523	663	3498
1	100995599	664	4452
1	101151697	665	4664
1	101307781	666	4028
1	101463880	667	3922
1	101620045	668	4505
1	101775980	669	3657
1	101932039	670	4876
1	102088063	671	4240
1	102244229	672	4611
1	102400376	673	3975
1	102556423	674	4187
1	102712539	675	4134
1	102868702	676	3392
1	103024577	677	4346
1	103180724	678	3763
1	103336890	679	4558
1	103492872	680	4770
1	103649024	681	3604
1	103805041	682	3869
1	103961094	683	3975
1	104117287	684	4293
1	104273372	685	3975
1	104429413	686	4399
1	104585420	687	4558
1	104741525	688	3816
1	104897588	689	3710
1	105053714	690	2650
1	105209723	691	3498
1	105365745	692	4081
1	105521776	693	4081
1	105677938	694	4558
1	105834021	695	4240
1	105990240	696	4081
1	106146125	697	4081
1	106302210	698	3657
1	106458167	699	4081
1	106614421	700	3286
1	106770326	701	3604
1	106926620	702	4028
1	107082716	703	4664
1	107238707	704	3922
1	107394797	705	4134
1	107550900	706	3975
1	107706790	707	4028
1	107862985	708	3763
1	108019184	709	4505
1	108175262	710	4770
1	108331398	711	4982
1	108487407	712	3922
1	108643452	713	3339
1	108799503	714	4240
1	108955626	715	4240
1	109111771	716	3922
1	109267729	717	4081
1	109423877	718	3763
1	109579892	719	4187
1	109735934	720	3657
1	109892087	721	3551
1	110048066	722	4187
1	110204175	723	3763
1	110360249	724	3869
1	110516282	725	3286
1	110672365	726	4399
1	110828540	727	4293
1	110984475	728	3922
1	111140575	729	3975
1	111296635	730	4346
1	111452834	731	4452
1	111608776	732	3233
1	111764854	733	4240
1	111921005	734	3498
1	112077100	735	4240
1	112233218	736	3869
1	112389259	737	3710
1	112545299	738	3604
1	112701391	739	3074
1	112857384	740	3127
1	113013442	741	3180
1	113169570	742	3233
1	113325577	743	3975
1	113481737	744	3869
1	113637709	745	4876
1	113793960	746	4876
1	113949881	747	3604
1	114106112	748	3922
1	114262183	749	5088
1	114418254	750	3922
1	114574334	751	4346
1	114730336	752	3922
1	114886399	753	4240
1	115042472	754	3392
1	115198449	755	3657
1	115354698	756	4346
1	115510730	757	4187
1	115666823	758	4346
1	115822922	759	4187
1	115979032	760	4346
1	116135102	761	5194
1	116291140	762	4452
1	116447315	763	4823
1	116603356	764	3975
1	116759466	765	4134
1	116915464	766	3869
1	117071593	767	4134
1	117227618	768	4452
1	117383728	769	4346
1	117539784	770	4240
1	117695935	771	3657
1	117852002	772	4505
1	118008007	773	4452
1	118164203	774	4081
1	118320224	775	3922
1	118476122	776	3975
1	118632377	777	3922
1	118788459	778	4293
1	118944544	779	4134
1	119100541	780	3816
1	119256775	781	4611
1	119412773	782	3975
1	119568890	783	3922
1	119724997	784	4293
1	119881044	785	4664
1	120037031	786	4081
1	120193205	787	3339
1	120349281	788	3869
1	120505400	789	5247
1	120661326	790	3233
1	120817458	791	3763
1	120973566	792	4717
1	121129610	793	3869
1	121285709	794	4134
1	121441765	795	4929
1	121597938	796	3763
1	121753895	797	4399
1	121909981	798	3710
1	122066153	799	3710
1	122222085	800	4028
1	122378243	801	4399
1	122534334	802	3498
1	122690351	803	4558
1	122846568	804	3657
1	123002535	805	4028
1	123158601	806	4346
1	123314709	807	4558
1	123470834	808	4293
1	123626763	809	3763
1	123782910	810	3074
1	123939074	811	3604
1	124094991	812	4346
1	124251126	813	4346
1	124407222	814	3286
1	124563329	815	4823
1	124719457	816	4558
1	124875496	817	4558
1	125031561	818	3604
1	125187761	819	3763
1	125343741	820	4081
1	125499853	821	4028
1	125655912	822	4293
1	125811973	823	3922
1	125968076	824	4664
1	126124088	825	4134
1	126280151	826	2968
1	126436219	827	3180
1	126592378	828	3657
1	126748304	829	4399
1	126904409	830	3498
1	127060590	831	4505
1	127216704	832	4611
1	127372698	833	3816
1	127528887	834	3869
1	127684922	835	3869
1	127841044	836	4558
1	127996977	837	3922
1	128153121	838	5035
1	128309215	839	5141
1	128465246	840	3975
1	128621514	841	3498
1	128777419	842	3869
1	128933582	843	3975
1	129089600	844	3975
1	129245707	845	4293
1	129401794	846	4717
1	129557783	847	3869
1	129713883	848	3869
1	129870067	849	4187
1	130026033	850	4611
1	130182148	851	4664
1	130338313	852	4929
1	130494253	853	4081
1	130650378	854	3975
1	130806395	855	3498
1	130962478	856	3498
1	131118645	857	3657
1	131274647	858	4081
1	131430844	859	3339
1	131586829	860	4293
1	131742899	861	4346
1	131899038	862	4346
1	132055049	863	3233
1	132211120	864	4028
1	132367245	865	4081
1	132523232	866	3869
1	132679294	867	3975
1	132835526	868	4399
1	132991525	869	4081
1	133147565	870	3286
1	133303669	871	4028
1	133459761	872	4028
1	133615802	873	4028
1	133771952	874	3286
1	133927950	875	3869
1	134084109	876	4399
1	134240124	877	3975
1	134396226	878	3392
1	134552222	879	3657
1	134708436	880	4346
1	134864500	881	3816
1	135020438	882	3180
1	135176517	883	3975
1	135332616	884	4187
1	135488624	885	4346
1	135644752	886	3286
1	135800838	887	3604
1	135956928	888	4028
1	136113030	889	3074
1	136269000	890	4028
1	136425156	891	3763
1	136581327	892	4028
1	136737264	893	4611
1	136893399	894	4081
1	137049507	895	4876
1	137205445	896	3975
1	137361644	897	3763
1	137517708	898	3657
1	137673794	899	4028
1	137829796	900	4134
1	137985921	901	4611
1	138141967	902	3922
1	138298160	903	3763
1	138454202	904	3922
1	138610134	905	3816
1	138766352	906	4558
1	138922340	907	3869
1	139078390	908	4505
1	139234634	909	4134
1	139390708	910	3763
1	139546707	911	4399
1	139702787	912	4770
1	139858873	913	4028
1	140014948	914	4293
1	140171094	915	3922
1	140327140	916	3869
1	140483132	917	4081
1	140639329	918	5035
1	140795373	919	4028
1	140951471	920	3975
1	141107430	921	3975
1	141263681	922	3922
1	141419633	923	4293
1	141575609	924	4664
1	141731776	925	4346
1	141887957	926	4399
1	142043998	927	5088
1	142200093	928	4611
1	142356100	929	3710
1	142512299	930	3816
1	142668436	931	3233
1	142824333	932	3021
1	142980404	933	4717
1	143136544	934	4452
1	143292660	935	4187
1	143448701	936	4187
1	143604709	937	3498
1	143760801	938	3551
1	143916972	939	3445
1	144072989	940	3922
1	144229053	941	5247
1	144385115	942	4187
1	144541341	943	3604
1	144697215	944	4028
1	144853379	945	4505
1	145009492	946	4134
1	145165494	947	3922
1	145321614	948	4505
1	145477659	949	4664
1	145633828	950	4293
1	145789900	951	4028
1	145946088	952	4081
1	146102115	953	3763
1	146258020	954	4081
1	146414129	955	3816
1	146570330	956	4664
1	146726314	957	4240
1	146882540	958	4293
1	147038445	959	3975
1	147194525	960	3604
1	147350608	961	4028
1	147506660	962	4293
1	147662834	963	3763
1	147818876	964	3339
1	147974975	965	4187
1	148131013	966	4240
1	148287108	967	4240
1	148443214	968	3710
1	148599283	969	4346
1	148755440	970	4081
1	148911481	971	3710
1	149067521	972	3816
1	149223650	973	4187
1	149379605	974	4134
1	149535672	975	4452
1	149691841	976	3922
1	149847845	977	4346
1	150004003	978	4240
1	150160058	979	4558
1	150316117	980	3657
1	150472190	981	4346
1	150628354	982	4505
1	150784410	983	4134
1	150940435	984	3339
1	151096590	985	5300
1	151252565	986	3922
1	151408758	987	4240
1	151564816	988	4134
1	151720958	989	4293
1	151876996	990	3604
1	152033072	991	4505
1	152189105	992	3498
1	152345046	993	3604
1	152501244	994	3551
1	152657335	995	4876
1	152813369	996	4770
1	152969569	997	4240
1	153125621	998	3869
1	153281610	999	4399
2	78052334	517	2084
2	78208404	518	33221
2	78364587	519	33258
2	78520528	520	33255
2	78676608	521	33241
2	78832653	522	33279
2	78988764	523	33250
2	79144813	524	33245
2	79300832	525	33290
2	79456969	526	33224
2	79613134	527	33267
2	79769155	528	33213
2	79925173	529	33316
2	80081230	530	33270
2	80237392	531	33267
2	80393445	532	33227
2	80549538	533	33249
2	80705683	534	33254
2	80861690	535	33285
2	81017804	536	33255
2	81173813	537	33288
2	81329927	538	33259
2	81485898	539	33224
2	81642134	540	33226
2	81798241	541	33263
2	81954305	542	33296
2	82110305	543	33255
2	82266416	544	33226
2	82422474	545	33254
2	82578553	546	33245
2	82734690	547	33311
2	82890647	548	33220
2	83046927	549	33194
2	83202808	550	33328
2	83358946	551	33264
2	83515087	552	33228
2	83671033	553	33286
2	83827160	554	33227
2	83983307	555	33264
2	84139286	556	33238
2	84295377	557	33248
2	84451559	558	33220
2	84607627	559	33293
2	84763668	560	33238
2	84919712	561	33307
2	85075775	562	33253
2	85231919	563	33222
2	85387999	564	33262
2	85544092	565	33232
2	85700143	566	33279
2	85856168	567	33275
2	86012369	568	33247
2	86168307	569	33242
2	86324358	570	33324
2	86480413	571	33255
2	86636662	572	33225
2	86792691	573	33232
2	86948807	574	33293
2	87104768	575	33231
2	87260973	576	33242
2	87417010	577	33270
2	87572874	578	33277
2	87729072	579	33225
2	87885227	580	33245
2	88041182	581	33318
2	88197250	582	33262
2	88353376	583	33280
2	88509594	584	33196
2	88665599	585	33232
2	88821683	586	33286
2	88977782	587	33249
2	89133790	588	33310
2	89289906	589	33209
2	89445981	590	33279
2	89602007	591	33244
2	89758134	592	33252
2	89914264	593	33248
2	90070233	594	33283
2	90226334	595	33239
2	90382464	596	33278
2	90538488	597	33306
2	90694617	598	33202
2	90850718	599	33253
2	91006730	600	33250
2	91162757	601	33295
2	91318791	602	33248
2	91474947	603	33240
2	91631068	604	33285
2	91787084	605	33251
2	91943175	606	33251
2	92099196	607	33280
2	92255337	608	33243
2	92411451	609	33273
2	92567537	610	33218
2	92723660	611	33285
2	92879543	612	33291
2	93035687	613	33235
2	93191797	614	33289
2	93347797	615	33234
2	93503960	616	33273
2	93659937	617	33275
2	93816055	618	33251
2	93972184	619	33229
2	94128195	620	33271
2	94284244	621	33254
2	94440442	622	33256
2	94596416	623	33224
2	94752520	624	33262
2	94908631	625	33304
2	95064638	626	33266
2	95220710	627	33252
2	95376847	628	33272
2	95532913	629	33252
2	95688980	630	33266
2	95845126	631	33257
2	96001172	632	33266
2	96157014	633	33275
2	96313226	634	33221
2	96469348	635	33244
2	96625430	636	33272
2	96781492	637	33242
2	96937536	638	33292
2	97093561	639	33254
2	97249778	640	33204
2	97405830	641	33287
2	97561863	642	33222
2	97718099	643	33257
2	97874147	644	33258
2	98030185	645	33277
2	98186271	646	33266
2	98342212	647	33257
2	98498276	648	33254
2	98654482	649	33278
2	98810516	650	33258
2	98966585	651	33249
2	99122674	652	33269
2	99278742	653	33229
2	99434754	654	33279
2	99590876	655	33263
2	99746979	656	33236
2	99903005	657	33253
2	100059190	658	33278
2	100215254	659	33206
2	100371314	660	33270
2	100527396	661	33303
2	100683457	662	33215
2	100839523	663	33279
2	100995599	664	33249
2	101151697	665	33235
2	101307781	666	33282
2	101463880	667	33241
2	101620045	668	33240
2	101775980	669	33305
2	101932039	670	33224
2	102088063	671	33252
2	102244229	672	33281
2	102400376	673	33202
2	102556423	674	33301
2	102712539	675	33187
2	102868702	676	33267
2	103024577	677	33278
2	103180724	678	33270
2	103336890	679	33213
2	103492872	680	33276
2	103649024	681	33241
2	103805041	682	33326
2	103961094	683	33223
2	104117287	684	33230
2	104273372	685	33225
2	104429413	686	33319
2	104585420	687	33227
2	104741525	688	33232
2	104897588	689	33276
2	105053714	690	33300
2	105209723	691	33292
2	105365745	692	33230
2	105521776	693	33248
2	105677938	694	33220
2	105834021	695	33253
2	105990240	696	33297
2	106146125	697	33254
2	106302210	698	33242
2	106458167	699	33268
2	106614421	700	33255
2	106770326	701	33338
2	106926620	702	33210
2	107082716	703	33253
2	107238707	704	33246
2	107394797	705	33288
2	107550900	706	33249
2	107706790	707	33281
2	107862985	708	33228
2	108019184	709	33210
2	108175262	710	33264
2	108331398	711	33293
2	108487407	712	33196
2	108643452	713	33309
2	108799503	714	33240
2	108955626	715	33262
2	109111771	716	33233
2	109267729	717	33261
2	109423877	718	33276
2	109579892	719	33267
2	109735934	720	33231
2	109892087	721	33289
2	110048066	722	33264
2	110204175	723	33236
2	110360249	724	33278
2	110516282	725	33294
2	110672365	726	33193
2	110828540	727	33270
2	110984475	728	33278
2	111140575	729	33233
2	111296635	730	33280
2	111452834	731	33248
2	111608776	732	33259
2	111764854	733	33274
2	111921005	734	33263
2	112077100	735	33235
2	112233218	736	33261
2	112389259	737	33262
2	112545299	738	33260
2	112701391	739	33272
2	112857384	740	33310
2	113013442	741	33248
2	113169570	742	33275
2	113325577	743	33263
2	113481737	744	33248
2	113637709	745	33236
2	113793960	746	33259
2	113949881	747	33253
2	114106112	748	33280
2	114262183	749	33226
2	114418254	750	33278
2	114574334	751	33227
2	114730336	752	33283
2	114886399	753	33252
2	115042472	754	33255
2	115198449	755	33269
2	115354698	756	33240
2	115510730	757	33275
2	115666823	758	33237
2	115822922	759	33243
2	115979032	760	33269
2	116135102	761	33221
2	116291140	762	33220
2	116447315	763	33267
2	116603356	764	33265
2	116759466	765	33274
2	116915464	766	33261
2	117071593	767	33237
2	117227618	768	33254
2	117383728	769	33263
2	117539784	770	33250
2	117695935	771	33248
2	117852002	772	33282
2	118008007	773	33244
2	118164203	774	33215
2	118320224	775	33286
2	118476122	776	33261
2	118632377	777	33240
2	118788459	778	33261
2	118944544	779	33287
2	119100541	780	33240
2	119256775	781	33244
2	119412773	782	33233
2	119568890	783	33258
2	119724997	784	33218
2	119881044	785	33334
2	120037031	786	33196
2	120193205	787	33274
2	120349281	788	33254
2	120505400	789	33265
2	120661326	790	33291
2	120817458	791	33228
2	120973566	792	33255
2	121129610	793	33245
2	121285709	794	33291
2	121441765	795	33229
2	121597938	796	33266
2	121753895	797	33244
2	121909981	798	33268
2	122066153	799	33264
2	122222085	800	33267
2	122378243	801	33247
2	122534334	802	33273
2	122690351	803	33244
2	122846568	804	33182
2	123002535	805	33325
2	123158601	806	33243
2	123314709	807	33258
2	123470834	808	33215
2	123626763	809	33296
2	123782910	810	33258
2	123939074	811	33272
2	124094991	812	33242
2	124251126	813	33270
2	124407222	814	33268
2	124563329	815	33217
2	124719457	816	33253
2	124875496	817	33259
2	125031561	818	33301
2	125187761	819	33226
2	125343741	820	33270
2	125499853	821	33245
2	125655912	822	33238
2	125811973	823	33270
2	125968076	824	33257
2	126124088	825	33264
2	126280151	826	33256
2	126436219	827	33286
2	126592378	828	33258
2	126748304	829	33264
2	126904409	830	33288
2	127060590	831	33197
2	127216704	832	33247
2	127372698	833	33291
2	127528887	834	33249
2	127684922	835	33278
2	127841044	836	33205
2	127996977	837	33280
2	128153121	838	33241
2	128309215	839	33239
2	128465246	840	33278
2	128621514	841	33243
2	128777419	842	33269
2	128933582	843	33245
2	129089600	844	33286
2	129245707	845	33253
2	129401794	846	33234
2	129557783	847	33252
2	129713883	848	33281
2	129870067	849	33203
2	130026033	850	33249
2	130182148	851	33299
2	130338313	852	33204
2	130494253	853	33313
2	130650378	854	33223
2	130806395	855	33265
2	130962478	856	33275
2	131118645	857	33244
2	131274647	858	33274
2	131430844	859	33266
2	131586829	860	33243
2	131742899	861	33257
2	131899038	862	33279
2	132055049	863	33244
2	132211120	864	33250
2	132367245	865	33296
2	132523232	866	33253
2	132679294	867	33259
2	132835526	868	33201
2	132991525	869	33283
2	133147565	870	33269
2	133303669	871	33254
2	133459761	872	33268
2	133615802	873	33256
2	133771952	874	33250
2	133927950	875	33293
2	134084109	876	33243
2	134240124	877	33262
2	134396226	878	33267
2	134552222	879	33235
2	134708436	880	33279
2	134864500	881	33227
2	135020438	882	33314
2	135176517	883	33246
2	135332616	884	33267
2	135488624	885	33241
2	135644752	886	33269
2	135800838	887	33274
2	135956928	888	33246
2	136113030	889	33241
2	136269000	890	33288
2	136425156	891	33261
2	136581327	892	33271
2	136737264	893	33228
2	136893399	894	33249
2	137049507	895	33238
2	137205445	896	33296
2	137361644	897	33221
2	137517708	898	33270
2	137673794	899	33265
2	137829796	900	33242
2	137985921	901	33293
2	138141967	902	33242
2	138298160	903	33236
2	138454202	904	33277
2	138610134	905	33266
2	138766352	906	33217
2	138922340	907	33295
2	139078390	908	33229
2	139234634	909	33248
2	139390708	910	33335
2	139546707	911	33202
2	139702787	912	33205
2	139858873	913	33284
2	140014948	914	33285
2	140171094	915	33202
2	140327140	916	33303
2	140483132	917	33263
2	140639329	918	33214
2	140795373	919	33245
2	140951471	920	33271
2	141107430	921	33266
2	141263681	922	33221
2	141419633	923	33282
2	141575609	924	33276
2	141731776	925	33260
2	141887957	926	33182
2	142043998	927	33229
2	142200093	928	33326
2	142356100	929	33227
2	142512299	930	33281
2	142668436	931	33281
2	142824333	932	33214
2	142980404	933	33289
2	143136544	934	33236
2	143292660	935	33250
2	143448701	936	33268
2	143604709	937	33263
2	143760801	938	33310
2	143916972	939	33219
2	144072989	940	33269
2	144229053	941	33233
2	144385115	942	33244
2	144541341	943	33273
2	144697215	944	33261
2	144853379	945	33307
2	145009492	946	33194
2	145165494	947	33244
2	145321614	948	33243
2	145477659	949	33280
2	145633828	950	33246
2	145789900	951	33243
2	145946088	952	33260
2	146102115	953	33252
2	146258020	954	33275
2	146414129	955	33258
2	146570330	956	33210
2	146726314	957	33280
2	146882540	958	33237
2	147038445	959	33281
2	147194525	960	33271
2	147350608	961	33257
2	147506660	962	33239
2	147662834	963	33261
2	147818876	964	33268
2	147974975	965	33270
2	148131013	966	33241
2	148287108	967	33269
2	148443214	968	33269
2	148599283	969	33234
2	148755440	970	33255
2	148911481	971	33283
2	149067521	972	33260
2	149223650	973	33205
2	149379605	974	33291
2	149535672	975	33224
2	149691841	976	33255
2	149847845	977	33293
2	150004003	978	33244
2	150160058	979	33264
2	150316117	980	33238
2	150472190	981	33266
2	150628354	982	33236
2	150784410	983	33289
2	150940435	984	33200
2	151096590	985	33245
2	151252565	986	33259
2	151408758	987	33272
2	151564816	988	33255
2	151720958	989	33260
2	151876996	990	33259
2	152033072	991	33261
2	152189105	992	33252
2	152345046	993	33257
2	152501244	994	33295
2	152657335	995	33233
2	152813369	996	33254
2	152969569	997	33215
2	153125621	998	33260
2	153281610	999	33281
3	78052334	517	0
3	78208404	518	0
3	78364587	519	0
3	78520528	520	0
3	78676608	521	0
3	78832653	522	0
3	78988764	523	0
3	79144813	524	0
3	79300832	525	0
3	79456969	526	0
3	79613134	527	0
3	79769155	528	0
3	79925173	529	0
3	80081230	530	0
3	80237392	531	0
3	80393445	532	0
3	80549538	533	0
3	80705683	534	0
3	80861690	535	0
3	81017804	536	0
3	81173813	537	0
3	81329927	538	0
3	81485898	539	0
3	81642134	540	0
3	81798241	541	0
3	81954305	542	0
3	82110305	543	0
3	82266416	544	0
3	82422474	545	0
3	82578553	546	0
3	82734690	547	0
3	82890647	548	0
3	83046927	549	0
3	83202808	550	0
3	83358946	551	0
3	83515087	552	0
3	83671033	553	0
3	83827160	554	0
3	83983307	555	0
3	84139286	556	0
3	84295377	557	0
3	84451559	558	0
3	84607627	559	0
3	84763668	560	0
3	84919712	561	0
3	85075775	562	0
3	85231919	563	0
3	85387999	564	0
3	85544092	565	0
3	85700143	566	0
3	85856168	567	0
3	86012369	568	0
3	86168307	569	0
3	86324358	570	0
3	86480413	571	0
3	86636662	572	0
3	86792691	573	0
3	86948807	574	0
3	87104768	575	0
3	87260973	576	0
3	87417010	577	0
3	87572874	578	0
3	87729072	579	0
3	87885227	580	0
3	88041182	581	0
3	88197250	582	0
3	88353376	583	0
3	88509594	584	0
3	88665599	585	0
3	88821683	586	0
3	88977782	587	0
3	89133790	588	0
3	89289906	589	0
3	89445981	590	0
3	89602007	591	0
3	89758134	592	0
3	89914264	593	0
3	90070233	594	0
3	90226334	595	0
3	90382464	596	0
3	90538488	597	0
3	90694617	598	0
3	90850718	599	0
3	91006730	600	0
3	91162757	601	0
3	91318791	602	0
3	91474947	603	0
3	91631068	604	0
3	91787084	605	0
3	91943175	606	0
3	92099196	607	0
3	92255337	608	0
3	92411451	609	0
3	92567537	610	0
3	92723660	611	0
3	92879543	612	0
3	93035687	613	0
3	93191797	614	0
3	93347797	615	0
3	93503960	616	0
3	93659937	617	0
3	93816055	618	0
3	93972184	619	0
3	94128195	620	0
3	94284244	621	0
3	94440442	622	0
3	94596416	623	0
3	94752520	624	0
3	94908631	625	0
3	95064638	626	0
3	95220710	627	0
3	95376847	628	0
3	95532913	629	0
3	95688980	630	0
3	95845126	631	0
3	96001172	632	0
3	96157014	633	0
3	96313226	634	0
3	96469348	635	0
3	96625430	636	0
3	96781492	637	0
3	96937536	638	0
3	97093561	639	0
3	97249778	640	0
3	97405830	641	0
3	97561863	642	0
3	97718099	643	0
3	97874147	644	0
3	98030185	645	0
3	98186271	646	0
3	98342212	647	0
3	98498276	648	0
3	98654482	649	0
3	98810516	650	0
3	98966585	651	0
3	99122674	652	0
3	99278742	653	0
3	99434754	654	0
3	99590876	655	0
3	99746979	656	0
3	99903005	657	0
3	100059190	658	0
3	100215254	659	0
3	100371314	660	0
3	100527396	661	0
3	100683457	662	0
3	100839523	663	0
3	100995599	664	0
3	101151697	665	0
3	101307781	666	0
3	101463880	667	0
3	101620045	668	0
3	101775980	669	0
3	101932039	670	0
3	102088063	671	0
3	102244229	672	0
3	102400376	673	0
3	102556423	674	0
3	102712539	675	0
3	102868702	676	0
3	103024577	677	0
3	103180724	678	0
3	103336890	679	0
3	103492872	680	0
3	103649024	681	0
3	103805041	682	0
3	103961094	683	0
3	104117287	684	0
3	104273372	685	0
3	104429413	686	0
3	104585420	687	0
3	104741525	688	0
3	104897588	689	0
3	105053714	690	0
3	105209723	691	0
3	105365745	692	0
3	105521776	693	0
3	105677938	694	0
3	105834021	695	0
3	105990240	696	0
3	106146125	697	0
3	106302210	698	0
3	106458167	699	0
3	106614421	700	0
3	106770326	701	0
3	106926620	702	0
3	107082716	703	0
3	107238707	704	0
3	107394797	705	0
3	107550900	706	0
3	107706790	707	0
3	107862985	708	0
3	108019184	709	0
3	108175262	710	0
3	108331398	711	0
3	108487407	712	0
3	108643452	713	0
3	108799503	714	0
3	108955626	715	0
3	109111771	716	0
3	109267729	717	0
3	109423877	718	0
3	109579892	719	0
3	109735934	720	0
3	109892087	721	0
3	110048066	722	0
3	110204175	723	0
3	110360249	724	0
3	110516282	725	0
3	110672365	726	0
3	110828540	727	0
3	110984475	728	0
3	111140575	729	0
3	111296635	730	0
3	111452834	731	0
3	111608776	732	0
3	111764854	733	0
3	111921005	734	0
3	112077100	735	0
3	112233218	736	0
3	112389259	737	0
3	112545299	738	0
3	112701391	739	0
3	112857384	740	0
3	113013442	741	0
3	113169570	742	0
3	113325577	743	0
3	113481737	744	0
3	113637709	745	0
3	113793960	746	0
3	113949881	747	0
3	114106112	748	0
3	114262183	749	0
3	114418254	750	0
3	114574334	751	0
3	114730336	752	0
3	114886399	753	0
3	115042472	754	0
3	115198449	755	0
3	115354698	756	0
3	115510730	757	0
3	115666823	758	0
3	115822922	759	0
3	115979032	760	0
3	116135102	761	0
3	116291140	762	0
3	116447315	763	0
3	116603356	764	0
3	116759466	765	0
3	116915464	766	0
3	117071593	767	0
3	117227618	768	0
3	117383728	769	0
3	117539784	770	0
3	117695935	771	0
3	117852002	772	0
3	118008007	773	0
3	118164203	774	0
3	118320224	775	0
3	118476122	776	0
3	118632377	777	0
3	118788459	778	0
3	118944544	779	0
3	119100541	780	0
3	119256775	781	0
3	119412773	782	0
3	119568890	783	0
3	119724997	784	0
3	119881044	785	0
3	120037031	786	0
3	120193205	787	0
3	120349281	788	0
3	120505400	789	0
3	120661326	790	0
3	120817458	791	0
3	120973566	792	0
3	121129610	793	0
3	121285709	794	0
3	121441765	795	0
3	121597938	796	0
3	121753895	797	0
3	121909981	798	0
3	122066153	799	0
3	122222085	800	0
3	122378243	801	0
3	122534334	802	0
3	122690351	803	0
3	122846568	804	0
3	123002535	805	0
3	123158601	806	0
3	123314709	807	0
3	123470834	808	0
3	123626763	809	0
3	123782910	810	0
3	123939074	811	0
3	124094991	812	0
3	124251126	813	0
3	124407222	814	0
3	124563329	815	0
3	124719457	816	0
3	124875496	817	0
3	125031561	818	0
3	125187761	819	0
3	125343741	820	0
3	125499853	821	0
3	125655912	822	0
3	125811973	823	0
3	125968076	824	0
3	126124088	825	0
3	126280151	826	0
3	126436219	827	0
3	126592378	828	0
3	126748304	829	0
3	126904409	830	0
3	127060590	831	0
3	127216704	832	0
3	127372698	833	0
3	127528887	834	0
3	127684922	835	0
3	127841044	836	0
3	127996977	837	0
3	128153121	838	0
3	128309215	839	0
3	128465246	840	0
3	128621514	841	0
3	128777419	842	0
3	128933582	843	0
3	129089600	844	0
3	129245707	845	0
3	129401794	846	0
3	129557783	847	0
3	129713883	848	0
3	129870067	849	0
3	130026033	850	0
3	130182148	851	0
3	130338313	852	0
3	130494253	853	0
3	130650378	854	0
3	130806395	855	0
3	130962478	856	0
3	131118645	857	0
3	131274647	858	0
3	131430844	859	0
3	131586829	860	0
3	131742899	861	0
3	131899038	862	0
3	132055049	863	0
3	132211120	864	0
3	132367245	865	0
3	132523232	866	0
3	132679294	867	0
3	132835526	868	0
3	132991525	869	0
3	133147565	870	0
3	133303669	871	0
3	133459761	872	0
3	133615802	873	0
3	133771952	874	0
3	133927950	875	0
3	134084109	876	0
3	134240124	877	0
3	134396226	878	0
3	134552222	879	0
3	134708436	880	0
3	134864500	881	0
3	135020438	882	0
3	135176517	883	0
3	135332616	884	0
3	135488624	885	0
3	135644752	886	0
3	135800838	887	0
3	135956928	888	0
3	136113030	889	0
3	136269000	890	0
3	136425156	891	0
3	136581327	892	0
3	136737264	893	0
3	136893399	894	0
3	137049507	895	0
3	137205445	896	0
3	137361644	897	0
3	137517708	898	0
3	137673794	899	0
3	137829796	900	0
3	137985921	901	0
3	138141967	902	0
3	138298160	903	0
3	138454202	904	0
3	138610134	905	0
3	138766352	906	0
3	138922340	907	0
3	139078390	908	0
3	139234634	909	0
3	139390708	910	0
3	139546707	911	0
3	139702787	912	0
3	139858873	913	0
3	140014948	914	0
3	140171094	915	0
3	140327140	916	0
3	140483132	917	0
3	140639329	918	0
3	140795373	919	0
3	140951471	920	0