version 2
run BasicCC-3-20100909-15:26:56-3476
attr configname BasicCC
attr datetime 20100909-15:26:56
attr delay 1000ms
attr experiment BasicCC
attr inifile D:/Developement/Oversim2/multic/simulations/omnetpp.ini
attr iterationvars $delay=1000ms
attr iterationvars2 "$delay=1000ms, $repetition=0"
attr measurement $delay=1000ms
attr network oversim.underlay.simpleunderlay.SimpleUnderlayNetwork
attr processid 3476
attr repetition 0
attr replication #0
attr resultdir results
attr runnumber 3
attr seedset 3

vector 1  SimpleUnderlayNetwork.globalObserver.globalStatistics  incoming_bytes  ETV
vector 2  SimpleUnderlayNetwork.globalObserver.globalStatistics  drops  ETV
vector 3  SimpleUnderlayNetwork.globalObserver.globalStatistics  delayed_acks  ETV
vector 4  SimpleUnderlayNetwork.globalObserver.globalStatistics  "GlobalNodeList: Number of nodes"  ETV
vector 5  SimpleUnderlayNetwork.globalObserver.globalStatistics  "GlobalNodeList: Number of bootstrapped malicious nodes"  ETV
1	78026907	520	4982
1	78183057	521	4240
1	78338881	522	5194
1	78495110	523	5141
1	78651244	524	4505
1	78807227	525	4770
1	78963221	526	4876
1	79119352	527	4982
1	79275531	528	5618
1	79431521	529	4717
1	79587646	530	4028
1	79743810	531	4399
1	79899814	532	3233
1	80055977	533	5247
1	80211935	534	4505
1	80368187	535	4134
1	80524301	536	4664
1	80680322	537	4558
1	80836448	538	4876
1	80992497	539	4240
1	81148661	540	4399
1	81304709	541	4452
1	81460648	542	4346
1	81616865	543	5353
1	81772917	544	4558
1	81929038	545	4929
1	82085046	546	3763
1	82241148	547	4982
1	82397317	548	4982
1	82553324	549	4134
1	82709463	550	5406
1	82865627	551	5194
1	83021617	552	5936
1	83177826	553	5830
1	83333826	554	4081
1	83489956	555	4664
1	83645980	556	4505
1	83802130	557	3975
1	83958197	558	4982
1	84114160	559	4664
1	84270193	560	4346
1	84426453	561	3975
1	84582405	562	4717
1	84738533	563	4558
1	84894733	564	4240
1	85050723	565	4929
1	85206996	566	4399
1	85362907	567	4664
1	85519094	568	5512
1	85675155	569	4187
1	85831218	570	4770
1	85987380	571	5194
1	86143453	572	4505
1	86299481	573	3922
1	86455444	574	4240
1	86611589	575	3869
1	86767750	576	4505
1	86923777	577	4664
1	87079868	578	3710
1	87235921	579	5618
1	87392051	580	4452
1	87548221	581	4134
1	87704336	582	4240
1	87860379	583	5035
1	88016474	584	4558
1	88172509	585	4717
1	88328587	586	5035
1	88484807	587	3975
1	88640870	588	4187
1	88796754	589	4452
1	88953028	590	5353
1	89109061	591	4558
1	89265159	592	4558
1	89421229	593	3922
1	89577397	594	4770
1	89733442	595	4187
1	89889417	596	5194
1	90045620	597	4876
1	90201626	598	5247
1	90357756	599	4505
1	90513658	600	4558
1	90669765	601	4505
1	90825929	602	4028
1	90982190	603	4823
1	91138055	604	4717
1	91294299	605	4134
1	91450460	606	5035
1	91606392	607	4876
1	91762659	608	4982
1	91918665	609	4982
1	92074827	610	5088
1	92230872	611	4982
1	92386947	612	5088
1	92543144	613	4982
1	92699083	614	4134
1	92855277	615	4293
1	93011243	616	4558
1	93167329	617	4452
1	93323450	618	4823
1	93479571	619	4664
1	93635640	620	4081
1	93791745	621	4505
1	93947843	622	4505
1	94103925	623	4346
1	94260097	624	4929
1	94416064	625	4876
1	94572161	626	4452
1	94728290	627	4929
1	94884262	628	4823
1	95040417	629	4081
1	95196532	630	4611
1	95352610	631	4399
1	95508741	632	3922
1	95664822	633	3869
1	95820758	634	5777
1	95976899	635	5300
1	96133139	636	4876
1	96289125	637	4399
1	96445095	638	4770
1	96601283	639	4081
1	96757406	640	4346
1	96913422	641	4293
1	97069506	642	4399
1	97225630	643	4134
1	97381814	644	5618
1	97537841	645	5247
1	97693854	646	4982
1	97850072	647	4558
1	98006069	648	4770
1	98162163	649	4717
1	98318195	650	4293
1	98474469	651	3975
1	98630551	652	5565
1	98786569	653	4240
1	98942701	654	5141
1	99098730	655	4611
1	99254651	656	4558
1	99410892	657	5141
1	99567175	658	4717
1	99723044	659	4187
1	99879124	660	4187
1	100035179	661	3710
1	100191469	662	4664
1	100347386	663	3816
1	100503417	664	4876
1	100659536	665	5459
1	100815915	666	5247
1	100971732	667	4717
1	101127918	668	4929
1	101284042	669	4399
1	101440112	670	4717
1	101596239	671	5459
1	101752284	672	4134
1	101908431	673	4982
1	102064449	674	4929
1	102220583	675	5194
1	102376571	676	3710
1	102532755	677	4505
1	102688800	678	4134
1	102844659	679	4293
1	103000981	680	4293
1	103156930	681	4187
1	103313119	682	4717
1	103469135	683	4664
1	103625206	684	3710
1	103781324	685	4558
1	103937381	686	3869
1	104093642	687	4876
1	104249721	688	4399
1	104405741	689	3975
1	104561709	690	4399
1	104717831	691	4240
1	104873990	692	4558
1	105029919	693	3604
1	105186210	694	4558
1	105342183	695	4611
1	105498192	696	4558
1	105654275	697	4505
1	105810447	698	4293
1	105966530	699	4558
1	106122630	700	4558
1	106278705	701	3869
1	106434727	702	4664
1	106590733	703	5141
1	106747031	704	4717
1	106903056	705	3869
1	107059010	706	5353
1	107215258	707	4134
1	107371387	708	4399
1	107527341	709	4505
1	107683502	710	5088
1	107839558	711	4611
1	107995742	712	4558
1	108151652	713	4929
1	108307897	714	4876
1	108463918	715	4664
1	108620025	716	4134
1	108776163	717	5035
1	108932117	718	4240
1	109088249	719	4823
1	109244288	720	5035
1	109400398	721	4081
1	109556644	722	4717
1	109712613	723	4452
1	109868751	724	4770
1	110024800	725	5300
1	110180958	726	4187
1	110336912	727	4081
1	110492932	728	4717
1	110649236	729	4558
1	110805233	730	4346
1	110961376	731	4399
1	111117284	732	4187
1	111273583	733	5671
1	111429647	734	5035
1	111585660	735	4929
1	111741808	736	3710
1	111897888	737	4346
1	112053804	738	4929
1	112210000	739	4982
1	112366207	740	3922
1	112522197	741	4717
1	112678319	742	5512
1	112834371	743	4346
1	112990402	744	3763
1	113146628	745	3816
1	113302626	746	5141
1	113458795	747	4293
1	113614863	748	4187
1	113770941	749	4505
1	113927015	750	4876
1	114083001	751	4028
1	114239122	752	3763
1	114395171	753	5247
1	114551219	754	4293
1	114707414	755	4187
1	114863504	756	5247
1	115019442	757	4929
1	115175615	758	4452
1	115331786	759	4399
1	115487765	760	4452
1	115643887	761	4664
1	115800114	762	4558
1	115956158	763	4611
1	116112166	764	4717
1	116268275	765	5141
1	116424406	766	4293
1	116580442	767	3816
1	116736660	768	4664
1	116892629	769	4240
1	117048853	770	3657
1	117204791	771	3975
1	117360873	772	4770
1	117516940	773	4187
1	117673027	774	5406
1	117828958	775	3975
1	117985237	776	4293
1	118141254	777	4664
1	118297441	778	4134
1	118453523	779	4452
1	118609446	780	3339
1	118765596	781	4399
1	118921641	782	4293
1	119077691	783	5247
1	119233648	784	4505
1	119390024	785	5459
1	119546263	786	5406
1	119702314	787	4346
1	119858267	788	4770
1	120014279	789	3922
1	120170324	790	4717
1	120326366	791	4452
1	120482547	792	4081
1	120638661	793	5035
1	120794695	794	4399
1	120950909	795	3869
1	121106899	796	5830
1	121263096	797	3498
1	121419122	798	5141
1	121575174	799	5141
1	121731275	800	4558
1	121887462	801	5141
1	122043554	802	5141
1	122199641	803	4982
1	122355634	804	4134
1	122511767	805	4399
1	122667822	806	4982
1	122824095	807	4558
1	122980003	808	3498
1	123136058	809	4611
1	123292063	810	4929
1	123448272	811	5088
1	123604349	812	4876
1	123760394	813	4452
1	123916532	814	4823
1	124072652	815	4028
1	124228730	816	4399
1	124384787	817	4664
1	124540929	818	3975
1	124696916	819	4293
1	124852979	820	4611
1	125009100	821	4770
1	125165327	822	4558
1	125321180	823	4876
1	125477542	824	4558
1	125633310	825	4505
1	125789560	826	4081
1	125945679	827	4611
1	126101708	828	3763
1	126257776	829	4346
1	126413889	830	4664
1	126570042	831	6042
1	126726076	832	3392
1	126882244	833	4770
1	127038279	834	5088
1	127194234	835	3816
1	127350393	836	4240
1	127506519	837	4823
1	127662679	838	4399
1	127818729	839	4664
1	127974743	840	3710
1	128130811	841	5035
1	128287014	842	4982
1	128442999	843	4823
1	128599081	844	4558
1	128755214	845	3657
1	128911309	846	5247
1	129067371	847	4823
1	129223527	848	5141
1	129379638	849	4505
1	129535595	850	5300
1	129691843	851	4823
1	129847909	852	4399
1	130004026	853	4823
1	130160092	854	4081
1	130316226	855	3180
1	130472027	856	5618
1	130628202	857	4399
1	130784300	858	4081
1	130940388	859	5353
1	131096490	860	4717
1	131252500	861	4081
1	131408613	862	3975
1	131564768	863	4346
1	131720876	864	4028
1	131876846	865	4240
1	132032926	866	3339
1	132188966	867	4929
1	132345069	868	3869
1	132501228	869	5035
1	132657365	870	4505
1	132813343	871	4611
1	132969609	872	4558
1	133125655	873	5141
1	133281758	874	4293
1	133437829	875	3975
1	133593813	876	5035
1	133749915	877	4770
1	133906092	878	4982
1	134062112	879	3657
1	134218085	880	3498
1	134374243	881	5035
1	134530558	882	5724
1	134686486	883	5141
1	134842501	884	4505
1	134998637	885	4399
1	135154674	886	4611
1	135310850	887	4823
1	135466839	888	4028
1	135622991	889	4770
1	135779156	890	4823
1	135935158	891	4134
1	136091285	892	4611
1	136247368	893	4558
1	136403436	894	4505
1	136559539	895	4187
1	136715556	896	4558
1	136871720	897	4611
1	137027767	898	4187
1	137183928	899	3710
1	137340076	900	4293
1	137495909	901	4823
1	137651977	902	4982
1	137808260	903	4929
1	137964244	904	4240
1	138120303	905	4770
1	138276310	906	4558
1	138432481	907	4611
1	138588560	908	5141
1	138744784	909	4293
1	138900783	910	4558
1	139056923	911	4452
1	139212963	912	5194
1	139369115	913	4770
1	139525084	914	3922
1	139681207	915	4452
1	139837338	916	4717
1	139993252	917	4346
1	140149510	918	5512
1	140305644	919	5141
1	140461740	920	5300
1	140617803	921	4823
1	140773865	922	4293
1	140930020	923	4823
1	141086107	924	4823
1	141242156	925	5088
1	141398284	926	4505
1	141554395	927	3922
1	141710400	928	4452
1	141866494	929	5247
1	142022590	930	4558
1	142178563	931	4240
1	142334720	932	5088
1	142490971	933	4982
1	142646907	934	5194
1	142803107	935	4664
1	142959142	936	5141
1	143115268	937	4823
1	143271331	938	4399
1	143427418	939	4081
1	143583474	940	4505
1	143739807	941	4293
1	143895719	942	4823
1	144051759	943	4664
1	144207977	944	4823
1	144363971	945	5035
1	144519926	946	4028
1	144676153	947	4717
1	144832302	948	3869
1	144988292	949	4876
1	145144396	950	3551
1	145300404	951	4240
1	145456303	952	4452
1	145612759	953	3816
1	145768701	954	4028
1	145924886	955	4717
1	146080883	956	4717
1	146236915	957	4505
1	146393052	958	4823
1	146549324	959	4240
1	146705236	960	3922
1	146861385	961	4770
1	147017488	962	4399
1	147173307	963	4823
1	147329419	964	4611
1	147485737	965	4717
1	147641743	966	4134
1	147797826	967	4399
1	147953936	968	4293
1	148110031	969	4717
1	148266014	970	4717
1	148422137	971	4028
1	148578209	972	4558
1	148734278	973	4505
1	148890423	974	3975
1	149046476	975	4770
1	149202595	976	4293
1	149358600	977	4558
1	149514797	978	4982
1	149670743	979	5035
1	149827081	980	4664
1	149982970	981	4717
1	150139176	982	5300
1	150295199	983	4823
1	150451314	984	4187
1	150607339	985	5088
1	150763579	986	4240
1	150919577	987	4293
1	151075660	988	4081
1	151231845	989	4664
1	151387832	990	3763
1	151543859	991	4452
1	151700003	992	4028
1	151856005	993	4558
1	152012181	994	4081
1	152168253	995	4770
1	152324190	996	4505
1	152480406	997	5141
1	152636487	998	4876
1	152792654	999	4611
2	78026907	520	15822
2	78183057	521	33263
2	78338881	522	33112
2	78495110	523	33311
2	78651244	524	33252
2	78807227	525	33181
2	78963221	526	33222
2	79119352	527	33252
2	79275531	528	33255
2	79431521	529	33196
2	79587646	530	33282
2	79743810	531	33273
2	79899814	532	33266
2	80055977	533	33229
2	80211935	534	33215
2	80368187	535	33324
2	80524301	536	33275
2	80680322	537	33218
2	80836448	538	33249
2	80992497	539	33238
2	81148661	540	33273
2	81304709	541	33240
2	81460648	542	33204
2	81616865	543	33274
2	81772917	544	33248
2	81929038	545	33220
2	82085046	546	33249
2	82241148	547	33258
2	82397317	548	33265
2	82553324	549	33199
2	82709463	550	33279
2	82865627	551	33234
2	83021617	552	33177
2	83177826	553	33268
2	83333826	554	33221
2	83489956	555	33265
2	83645980	556	33216
2	83802130	557	33284
2	83958197	558	33265
2	84114160	559	33175
2	84270193	560	33200
2	84426453	561	33372
2	84582405	562	33180
2	84738533	563	33252
2	84894733	564	33312
2	85050723	565	33208
2	85206996	566	33299
2	85362907	567	33181
2	85519094	568	33299
2	85675155	569	33199
2	85831218	570	33254
2	85987380	571	33261
2	86143453	572	33232
2	86299481	573	33226
2	86455444	574	33217
2	86611589	575	33277
2	86767750	576	33318
2	86923777	577	33204
2	87079868	578	33268
2	87235921	579	33204
2	87392051	580	33275
2	87548221	581	33288
2	87704336	582	33271
2	87860379	583	33233
2	88016474	584	33195
2	88172509	585	33255
2	88328587	586	33213
2	88484807	587	33328
2	88640870	588	33278
2	88796754	589	33143
2	88953028	590	33313
2	89109061	591	33221
2	89265159	592	33250
2	89421229	593	33253
2	89577397	594	33299
2	89733442	595	33228
2	89889417	596	33156
2	90045620	597	33300
2	90201626	598	33198
2	90357756	599	33256
2	90513658	600	33176
2	90669765	601	33271
2	90825929	602	33288
2	90982190	603	33308
2	91138055	604	33153
2	91294299	605	33319
2	91450460	606	33258
2	91606392	607	33188
2	91762659	608	33317
2	91918665	609	33182
2	92074827	610	33291
2	92230872	611	33206
2	92386947	612	33233
2	92543144	613	33301
2	92699083	614	33177
2	92855277	615	33282
2	93011243	616	33214
2	93167329	617	33240
2	93323450	618	33277
2	93479571	619	33254
2	93635640	620	33278
2	93791745	621	33209
2	93947843	622	33253
2	94103925	623	33253
2	94260097	624	33289
2	94416064	625	33207
2	94572161	626	33238
2	94728290	627	33254
2	94884262	628	33181
2	95040417	629	33285
2	95196532	630	33277
2	95352610	631	33246
2	95508741	632	33258
2	95664822	633	33287
2	95820758	634	33151
2	95976899	635	33236
2	96133139	636	33320
2	96289125	637	33197
2	96445095	638	33173
2	96601283	639	33333
2	96757406	640	33258
2	96913422	641	33208
2	97069506	642	33242
2	97225630	643	33308
2	97381814	644	33259
2	97537841	645	33185
2	97693854	646	33209
2	97850072	647	33324
2	98006069	648	33188
2	98162163	649	33257
2	98318195	650	33211
2	98474469	651	33343
2	98630551	652	33239
2	98786569	653	33221
2	98942701	654	33239
2	99098730	655	33226
2	99254651	656	33156
2	99410892	657	33325
2	99567175	658	33332
2	99723044	659	33142
2	99879124	660	33282
2	100035179	661	33239
2	100191469	662	33351
2	100347386	663	33187
2	100503417	664	33194
2	100659536	665	33240
2	100815915	666	33364
2	100971732	667	33159
2	101127918	668	33227
2	101284042	669	33301
2	101440112	670	33218
2	101596239	671	33244
2	101752284	672	33233
2	101908431	673	33288
2	102064449	674	33194
2	102220583	675	33243
2	102376571	676	33234
2	102532755	677	33283
2	102688800	678	33227
2	102844659	679	33153
2	103000981	680	33373
2	103156930	681	33194
2	103313119	682	33285
2	103469135	683	33205
2	103625206	684	33276
2	103781324	685	33266
2	103937381	686	33218
2	104093642	687	33356
2	104249721	688	33248
2	104405741	689	33222
2	104561709	690	33163
2	104717831	691	33319
2	104873990	692	33272
2	105029919	693	33181
2	105186210	694	33378
2	105342183	695	33164
2	105498192	696	33230
2	105654275	697	33235
2	105810447	698	33295
2	105966530	699	33246
2	106122630	700	33264
2	106278705	701	33245
2	106434727	702	33220
2	106590733	703	33183
2	106747031	704	33346
2	106903056	705	33262
2	107059010	706	33145
2	107215258	707	33321
2	107371387	708	33305
2	107527341	709	33175
2	107683502	710	33252
2	107839558	711	33234
2	107995742	712	33302
2	108151652	713	33149
2	108307897	714	33330
2	108463918	715	33192
2	108620025	716	33270
2	108776163	717	33257
2	108932117	718	33214
2	109088249	719	33224
2	109244288	720	33224
2	109400398	721	33253
2	109556644	722	33347
2	109712613	723	33189
2	109868751	724	33261
2	110024800	725	33226
2	110180958	726	33288
2	110336912	727	33199
2	110492932	728	33189
2	110649236	729	33343
2	110805233	730	33243
2	110961376	731	33258
2	111117284	732	33187
2	111273583	733	33325
2	111429647	734	33220
2	111585660	735	33190
2	111741808	736	33311
2	111897888	737	33213
2	112053804	738	33176
2	112210000	739	33323
2	112366207	740	33299
2	112522197	741	33189
2	112678319	742	33226
2	112834371	743	33238
2	112990402	744	33268
2	113146628	745	33326
2	113302626	746	33175
2	113458795	747	33325
2	113614863	748	33229
2	113770941	749	33221
2	113927015	750	33247
2	114083001	751	33209
2	114239122	752	33304
2	114395171	753	33223
2	114551219	754	33240
2	114707414	755	33254
2	114863504	756	33254
2	115019442	757	33161
2	115175615	758	33306
2	115331786	759	33290
2	115487765	760	33168
2	115643887	761	33270
2	115800114	762	33330
2	115956158	763	33244
2	116112166	764	33198
2	116268275	765	33235
2	116424406	766	33277
2	116580442	767	33239
2	116736660	768	33315
2	116892629	769	33211
2	117048853	770	33306
2	117204791	771	33205
2	117360873	772	33236
2	117516940	773	33253
2	117673027	774	33215
2	117828958	775	33210
2	117985237	776	33359
2	118141254	777	33171
2	118297441	778	33338
2	118453523	779	33238
2	118609446	780	33175
2	118765596	781	33294
2	118921641	782	33245
2	119077691	783	33213
2	119233648	784	33205
2	119390024	785	33340
2	119546263	786	33282
2	119702314	787	33249
2	119858267	788	33175
2	120014279	789	33224
2	120170324	790	33231
2	120326366	791	33227
2	120482547	792	33304
2	120638661	793	33246
2	120794695	794	33232
2	120950909	795	33355
2	121106899	796	33148
2	121263096	797	33306
2	121419122	798	33204
2	121575174	799	33218
2	121731275	800	33244
2	121887462	801	33298
2	122043554	802	33232
2	122199641	803	33239
2	122355634	804	33207
2	122511767	805	33287
2	122667822	806	33196
2	122824095	807	33335
2	122980003	808	33212
2	123136058	809	33214
2	123292063	810	33213
2	123448272	811	33316
2	123604349	812	33201
2	123760394	813	33248
2	123916532	814	33273
2	124072652	815	33254
2	124228730	816	33248
2	124384787	817	33240
2	124540929	818	33280
2	124696916	819	33201
2	124852979	820	33237
2	125009100	821	33247
2	125165327	822	33324
2	125321180	823	33129
2	125477542	824	33381
2	125633310	825	33108
2	125789560	826	33323
2	125945679	827	33258
2	126101708	828	33252
2	126257776	829	33226
2	126413889	830	33273
2	126570042	831	33242
2	126726076	832	33272
2	126882244	833	33242
2	127038279	834	33225
2	127194234	835	33210
2	127350393	836	33260
2	127506519	837	33263
2	127662679	838	33299
2	127818729	839	33246
2	127974743	840	33174
2	128130811	841	33295
2	128287014	842	33261
2	128442999	843	33209
2	128599081	844	33251
2	128755214	845	33268
2	128911309	846	33249
2	129067371	847	33238
2	129223527	848	33260
2	129379638	849	33257
2	129535595	850	33170
2	129691843	851	33303
2	129847909	852	33227
2	130004026	853	33279
2	130160092	854	33236
2	130316226	855	33324
2	130472027	856	33073
2	130628202	857	33298
2	130784300	858	33264
2	130940388	859	33233
2	131096490	860	33236
2	131252500	861	33223
2	131408613	862	33283
2	131564768	863	33276
2	131720876	864	33284
2	131876846	865	33201
2	132032926	866	33279
2	132188966	867	33211
2	132345069	868	33260
2	132501228	869	33284
2	132657365	870	33261
2	132813343	871	33187
2	132969609	872	33357
2	133125655	873	33199
2	133281758	874	33275
2	133437829	875	33249
2	133593813	876	33174
2	133749915	877	33261
2	133906092	878	33245
2	134062112	879	33279
2	134218085	880	33243
2	134374243	881	33240
2	134530558	882	33290
2	134686486	883	33177
2	134842501	884	33209
2	134998637	885	33289
2	135154674	886	33233
2	135310850	887	33276
2	135466839	888	33205
2	135622991	889	33289
2	135779156	890	33263
2	135935158	891	33207
2	136091285	892	33287
2	136247368	893	33246
2	136403436	894	33240
2	136559539	895	33266
2	136715556	896	33198
2	136871720	897	33273
2	137027767	898	33280
2	137183928	899	33276
2	137340076	900	33269
2	137495909	901	33134
2	137651977	902	33240
2	137808260	903	33310
2	137964244	904	33235
2	138120303	905	33207
2	138276310	906	33217
2	138432481	907	33273
2	138588560	908	33226
2	138744784	909	33330
2	138900783	910	33211
2	139056923	911	33282
2	139212963	912	33178
2	139369115	913	33292
2	139525084	914	33213
2	139681207	915	33257
2	139837338	916	33262
2	139993252	917	33193
2	140149510	918	33284
2	140305644	919	33259
2	140461740	920	33224
2	140617803	921	33227
2	140773865	922	33241
2	140930020	923	33267
2	141086107	924	33245
2	141242156	925	33221
2	141398284	926	33264
2	141554395	927	33266
2	141710400	928	33223
2	141866494	929	33226
2	142022590	930	33275
2	142178563	931	33198
2	142334720	932	33247
2	142490971	933	33303
2	142646907	934	33193
2	142803107	935	33282
2	142959142	936	33198
2	143115268	937	33261
2	143271331	938	33248
2	143427418	939	33245
2	143583474	940	33241
2	143739807	941	33356
2	143895719	942	33177
2	144051759	943	33230
2	144207977	944	33303
2	144363971	945	33170
2	144519926	946	33225
2	144676153	947	33276
2	144832302	948	33315
2	144988292	949	33202
2	145144396	950	33286
2	145300404	951	33207
2	145456303	952	33149
2	145612759	953	33455
2	145768701	954	33195
2	145924886	955	33310
2	146080883	956	33185
2	146236915	957	33219
2	146393052	958	33283
2	146549324	959	33315
2	146705236	960	33192
2	146861385	961	33283
2	147017488	962	33250
2	147173307	963	33123
2	147329419	964	33266
2	147485737	965	33299
2	147641743	966	33230
2	147797826	967	33247
2	147953936	968	33285
2	148110031	969	33261
2	148266014	970	33185
2	148422137	971	33269
2	148578209	972	33245
2	148734278	973	33258
2	148890423	974	33283
2	149046476	975	33219
2	149202595	976	33265
2	149358600	977	33207
2	149514797	978	33294
2	149670743	979	33159
2	149827081	980	33351
2	149982970	981	33173
2	150139176	982	33298
2	150295199	983	33171
2	150451314	984	33301
2	150607339	985	33206
2	150763579	986	33311
2	150919577	987	33193
2	151075660	988	33289
2	151231845	989	33291
2	151387832	990	33201
2	151543859	991	33240
2	151700003	992	33257
2	151856005	993	33237
2	152012181	994	33289
2	152168253	995	33248
2	152324190	996	33179
2	152480406	997	33279
2	152636487	998	33251
2	152792654	999	33273
3	78026907	520	0
3	78183057	521	0
3	78338881	522	0
3	78495110	523	0
3	78651244	524	0
3	78807227	525	0
3	78963221	526	0
3	79119352	527	0
3	79275531	528	0
3	79431521	529	0
3	79587646	530	0
3	79743810	531	0
3	79899814	532	0
3	80055977	533	0
3	80211935	534	0
3	80368187	535	0
3	80524301	536	0
3	80680322	537	0
3	80836448	538	0
3	80992497	539	0
3	81148661	540	0
3	81304709	541	0
3	81460648	542	0
3	81616865	543	0
3	81772917	544	0
3	81929038	545	0
3	82085046	546	0
3	82241148	547	0
3	82397317	548	0
3	82553324	549	0
3	82709463	550	0
3	82865627	551	0
3	83021617	552	0
3	83177826	553	0
3	83333826	554	0
3	83489956	555	0
3	83645980	556	0
3	83802130	557	0
3	83958197	558	0
3	84114160	559	0
3	84270193	560	0
3	84426453	561	0
3	84582405	562	0
3	84738533	563	0
3	84894733	564	0
3	85050723	565	0
3	85206996	566	0
3	85362907	567	0
3	85519094	568	0
3	85675155	569	0
3	85831218	570	0
3	85987380	571	0
3	86143453	572	0
3	86299481	573	0
3	86455444	574	0
3	86611589	575	0
3	86767750	576	0
3	86923777	577	0
3	87079868	578	0
3	87235921	579	0
3	87392051	580	0
3	87548221	581	0
3	87704336	582	0
3	87860379	583	0
3	88016474	584	0
3	88172509	585	0
3	88328587	586	0
3	88484807	587	0
3	88640870	588	0
3	88796754	589	0
3	88953028	590	0
3	89109061	591	0
3	89265159	592	0
3	89421229	593	0
3	89577397	594	0
3	89733442	595	0
3	89889417	596	0
3	90045620	597	0
3	90201626	598	0
3	90357756	599	0
3	90513658	600	0
3	90669765	601	0
3	90825929	602	0
3	90982190	603	0
3	91138055	604	0
3	91294299	605	0
3	91450460	606	0
3	91606392	607	0
3	91762659	608	0
3	91918665	609	0
3	92074827	610	0
3	92230872	611	0
3	92386947	612	0
3	92543144	613	0
3	92699083	614	0
3	92855277	615	0
3	93011243	616	0
3	93167329	617	0
3	93323450	618	0
3	93479571	619	0
3	93635640	620	0
3	93791745	621	0
3	93947843	622	0
3	94103925	623	0
3	94260097	624	0
3	94416064	625	0
3	94572161	626	0
3	94728290	627	0
3	94884262	628	0
3	95040417	629	0
3	95196532	630	0
3	95352610	631	0
3	95508741	632	0
3	95664822	633	0
3	95820758	634	0
3	95976899	635	0
3	96133139	636	0
3	96289125	637	0
3	96445095	638	0
3	96601283	639	0
3	96757406	640	0
3	96913422	641	0
3	97069506	642	0
3	97225630	643	0
3	97381814	644	0
3	97537841	645	0
3	97693854	646	0
3	97850072	647	0
3	98006069	648	0
3	98162163	649	0
3	98318195	650	0
3	98474469	651	0
3	98630551	652	0
3	98786569	653	0
3	98942701	654	0
3	99098730	655	0
3	99254651	656	0
3	99410892	657	0
3	99567175	658	0
3	99723044	659	0
3	99879124	660	0
3	100035179	661	0
3	100191469	662	0
3	100347386	663	0
3	100503417	664	0
3	100659536	665	0
3	100815915	666	0
3	100971732	667	0
3	101127918	668	0
3	101284042	669	0
3	101440112	670	0
3	101596239	671	0
3	101752284	672	0
3	101908431	673	0
3	102064449	674	0
3	102220583	675	0
3	102376571	676	0
3	102532755	677	0
3	102688800	678	0
3	102844659	679	0
3	103000981	680	0
3	103156930	681	0
3	103313119	682	0
3	103469135	683	0
3	103625206	684	0
3	103781324	685	0
3	103937381	686	0
3	104093642	687	0
3	104249721	688	0
3	104405741	689	0
3	104561709	690	0
3	104717831	691	0
3	104873990	692	0
3	105029919	693	0
3	105186210	694	0
3	105342183	695	0
3	105498192	696	0
3	105654275	697	0
3	105810447	698	0
3	105966530	699	0
3	106122630	700	0
3	106278705	701	0
3	106434727	702	0
3	106590733	703	0
3	106747031	704	0
3	106903056	705	0
3	107059010	706	0
3	107215258	707	0
3	107371387	708	0
3	107527341	709	0
3	107683502	710	0
3	107839558	711	0
3	107995742	712	0
3	108151652	713	0
3	108307897	714	0
3	108463918	715	0
3	108620025	716	0
3	108776163	717	0
3	108932117	718	0
3	109088249	719	0
3	109244288	720	0
3	109400398	721	0
3	109556644	722	0
3	109712613	723	0
3	109868751	724	0
3	110024800	725	0
3	110180958	726	0
3	110336912	727	0
3	110492932	728	0
3	110649236	729	0
3	110805233	730	0
3	110961376	731	0
3	111117284	732	0
3	111273583	733	0
3	111429647	734	0
3	111585660	735	0
3	111741808	736	0
3	111897888	737	0
3	112053804	738	0
3	112210000	739	0
3	112366207	740	0
3	112522197	741	0
3	112678319	742	0
3	112834371	743	0
3	112990402	744	0
3	113146628	745	0
3	113302626	746	0
3	113458795	747	0
3	113614863	748	0
3	113770941	749	0
3	113927015	750	0
3	114083001	751	0
3	114239122	752	0
3	114395171	753	0
3	114551219	754	0
3	114707414	755	0
3	114863504	756	0
3	115019442	757	0
3	115175615	758	0
3	115331786	759	0
3	115487765	760	0
3	115643887	761	0
3	115800114	762	0
3	115956158	763	0
3	116112166	764	0
3	116268275	765	0
3	116424406	766	0
3	116580442	767	0
3	116736660	768	0
3	116892629	769	0
3	117048853	770	0
3	117204791	771	0
3	117360873	772	0
3	117516940	773	0
3	117673027	774	0
3	117828958	775	0
3	117985237	776	0
3	118141254	777	0
3	118297441	778	0
3	118453523	779	0
3	118609446	780	0
3	118765596	781	0
3	118921641	782	0
3	119077691	783	0
3	119233648	784	0
3	119390024	785	0
3	119546263	786	0
3	119702314	787	0
3	119858267	788	0
3	120014279	789	0
3	120170324	790	0
3	120326366	791	0
3	120482547	792	0
3	120638661	793	0
3	120794695	794	0
3	120950909	795	0
3	121106899	796	0
3	121263096	797	0
3	121419122	798	0
3	121575174	799	0
3	121731275	800	0
3	121887462	801	0
3	122043554	802	0
3	122199641	803	0
3	122355634	804	0
3	122511767	805	0
3	122667822	806	0
3	122824095	807	0
3	122980003	808	0
3	123136058	809	0
3	123292063	810	0
3	123448272	811	0
3	123604349	812	0
3	123760394	813	0
3	123916532	814	0
3	124072652	815	0
3	124228730	816	0
3	124384787	817	0
3	124540929	818	0
3	124696916	819	0
3	124852979	820	0
3	125009100	821	0
3	125165327	822	0
3	125321180	823	0
3	125477542	824	0
3	125633310	825	0
3	125789560	826	0
3	125945679	827	0
3	126101708	828	0
3	126257776	829	0
3	126413889	830	0
3	126570042	831	0
3	126726076	832	0
3	126882244	833	0
3	127038279	834	0
3	127194234	835	0
3	127350393	836	0
3	127506519	837	0
3	127662679	838	0
3	127818729	839	0
3	127974743	840	0
3	128130811	841	0
3	128287014	842	0
3	128442999	843	0
3	128599081	844	0
3	128755214	845	0
3	128911309	846	0
3	129067371	847	0
3	129223527	848	0
3	129379638	849	0
3	129535595	850	0
3	129691843	851	0
3	129847909	852	0
3	130004026	853	0
3	130160092	854	0
3	130316226	855	0
3	130472027	856	0
3	130628202	857	0
3	130784300	858	0
3	130940388	859	0
3	131096490	860	0
3	131252500	861	0
3	131408613	862	0
3	131564768	863	0
3	131720876	864	0
3	131876846	865	0
3	132032926	866	0
3	132188966	867	0
3	132345069	868	0
3	132501228	869	0
3	132657365	870	0
3	132813343	871	0
3	132969609	872	0
3	133125655	873	0
3	133281758	874	0
3	133437829	875	0
3	133593813	876	0
3	133749915	877	0
3	133906092	878	0
3	134062112	879	0
3	134218085	880	0
3	134374243	881	0
3	134530558	882	0
3	134686486	883	0
3	134842501	884	0
3	134998637	885	0
3	135154674	886	0
3	135310850	887	0
3	135466839	888	0
3	135622991	889	0
3	135779156	890	0
3	135935158	891	0
3	136091285	892	0
3	136247368	893	0
3	136403436	894	0
3	136559539	895	0
3	136715556	896	0
3	136871720	897	0
3	137027767	898	0
3	137183928	899	0
3	137340076	900	0
3	137495909	901	0
3	137651977	902	0
3	137808260	903	0
3	137964244	904	0
3	138120303	905	0
3	138276310	906	0
3	138432481	907	0
3	138588560	908	0
3	138744784	909	0
3	138900783	910	0
3	139056923	911	0
3	139212963	912	0
3	139369115	913	0
3	139525084	914	0
3	139681207	915	0
3	139837338	916	0
3	139993252	917	0
3	140149510	918	0
3	140305644	919	0
3	140461740	920	0
3	140617803	921	0
3	140773865	922	0
3	140930020	923	0
3	141086107	924	0
3	141242156	925	0
3	141398284	926	0
3	141554395	927	0
3	141710400	928	0
3	141866494	929	0
3	142022590	930	0