version 2
run BasicCC-1-20100909-14:27:43-2324
attr configname BasicCC
attr datetime 20100909-14:27:43
attr delay 200ms
attr experiment BasicCC
attr inifile D:/Developement/Oversim2/multic/simulations/omnetpp.ini
attr iterationvars $delay=200ms
attr iterationvars2 "$delay=200ms, $repetition=0"
attr measurement $delay=200ms
attr network oversim.underlay.simpleunderlay.SimpleUnderlayNetwork
attr processid 2324
attr repetition 0
attr replication #0
attr resultdir results
attr runnumber 1
attr seedset 1

vector 1  SimpleUnderlayNetwork.globalObserver.globalStatistics  incoming_bytes  ETV
vector 2  SimpleUnderlayNetwork.globalObserver.globalStatistics  drops  ETV
vector 3  SimpleUnderlayNetwork.globalObserver.globalStatistics  delayed_acks  ETV
vector 4  SimpleUnderlayNetwork.globalObserver.globalStatistics  "GlobalNodeList: Number of nodes"  ETV
vector 5  SimpleUnderlayNetwork.globalObserver.globalStatistics  "GlobalNodeList: Number of bootstrapped malicious nodes"  ETV
1	78158617	520	4505
1	78314742	521	4028
1	78470725	522	4611
1	78626956	523	4929
1	78782997	524	4346
1	78939059	525	4558
1	79095199	526	5300
1	79251205	527	5035
1	79407413	528	5512
1	79563441	529	4452
1	79719599	530	4929
1	79875684	531	5035
1	80031696	532	3604
1	80187757	533	4770
1	80343928	534	5247
1	80500075	535	4611
1	80656053	536	5459
1	80812200	537	5141
1	80968283	538	5035
1	81124398	539	5088
1	81280585	540	4293
1	81436465	541	3604
1	81592628	542	4346
1	81748740	543	4134
1	81904818	544	5300
1	82060776	545	4399
1	82216955	546	5247
1	82373112	547	4823
1	82529129	548	4452
1	82685212	549	4505
1	82841336	550	4505
1	82997427	551	4346
1	83153462	552	4505
1	83309623	553	3975
1	83465715	554	5247
1	83621709	555	4346
1	83777847	556	4876
1	83933908	557	4982
1	84089958	558	4346
1	84246027	559	3975
1	84402201	560	4823
1	84558281	561	4558
1	84714433	562	5830
1	84870467	563	4929
1	85026546	564	4399
1	85182715	565	4505
1	85338752	566	4452
1	85494848	567	4240
1	85650868	568	3922
1	85806974	569	3551
1	85963079	570	4611
1	86119175	571	5194
1	86275249	572	4823
1	86431331	573	4664
1	86587422	574	3445
1	86743495	575	3816
1	86899548	576	4505
1	87055638	577	4982
1	87211736	578	5141
1	87367872	579	4240
1	87523866	580	4770
1	87680037	581	4558
1	87836137	582	5618
1	87992243	583	4876
1	88148317	584	4611
1	88304390	585	4823
1	88460435	586	4187
1	88616515	587	3869
1	88772599	588	4452
1	88928682	589	4717
1	89084910	590	4717
1	89240849	591	3975
1	89396912	592	4611
1	89553055	593	4876
1	89709179	594	4452
1	89865243	595	5618
1	90021372	596	5194
1	90177468	597	4452
1	90333512	598	4558
1	90489660	599	5777
1	90645793	600	4982
1	90801813	601	5194
1	90957842	602	4134
1	91113952	603	5406
1	91270086	604	4876
1	91426221	605	4876
1	91582192	606	3975
1	91738345	607	4823
1	91894483	608	4293
1	92050567	609	4770
1	92206576	610	4293
1	92362824	611	3445
1	92518778	612	4664
1	92674906	613	4558
1	92831013	614	4770
1	92987111	615	5088
1	93143118	616	4293
1	93299279	617	4876
1	93455300	618	4399
1	93611419	619	4399
1	93767460	620	4240
1	93923685	621	4611
1	94079619	622	4134
1	94235762	623	4982
1	94391845	624	4081
1	94547911	625	5300
1	94703977	626	4399
1	94860126	627	4717
1	95016211	628	4929
1	95172317	629	3869
1	95328468	630	5141
1	95484461	631	4823
1	95640559	632	4611
1	95796621	633	4240
1	95952761	634	5088
1	96108831	635	5459
1	96264863	636	4558
1	96421026	637	5247
1	96577164	638	4823
1	96733260	639	4452
1	96889256	640	4982
1	97045451	641	5300
1	97201520	642	4293
1	97357592	643	4346
1	97513635	644	4452
1	97669643	645	4452
1	97825909	646	4452
1	97981891	647	4611
1	98138083	648	4982
1	98293999	649	4876
1	98450176	650	4611
1	98606251	651	4293
1	98762300	652	4505
1	98918439	653	4346
1	99074489	654	3816
1	99230695	655	5618
1	99386703	656	5035
1	99542788	657	4399
1	99698886	658	4876
1	99854927	659	4770
1	100011013	660	4876
1	100167229	661	4134
1	100323231	662	4293
1	100479328	663	4293
1	100635390	664	4452
1	100791419	665	4876
1	100947569	666	4240
1	101103627	667	4452
1	101259641	668	3975
1	101415760	669	4717
1	101571885	670	4717
1	101727924	671	3604
1	101884043	672	4399
1	102040129	673	4452
1	102196286	674	4664
1	102352411	675	4293
1	102508430	676	3869
1	102664464	677	4929
1	102820580	678	4982
1	102976732	679	5088
1	103132783	680	3710
1	103288862	681	5035
1	103444847	682	4823
1	103601018	683	4876
1	103757031	684	5247
1	103913247	685	5194
1	104069297	686	3869
1	104225382	687	4717
1	104381485	688	5141
1	104537614	689	5088
1	104693789	690	5353
1	104849830	691	3869
1	105005797	692	4876
1	105161885	693	4664
1	105318067	694	4982
1	105474189	695	4611
1	105630144	696	5035
1	105786264	697	4770
1	105942416	698	4611
1	106098568	699	3710
1	106254598	700	5247
1	106410631	701	4240
1	106566727	702	4876
1	106722863	703	4558
1	106878894	704	4664
1	107035076	705	5088
1	107191197	706	4611
1	107347219	707	4717
1	107503309	708	4346
1	107659385	709	4982
1	107815528	710	5724
1	107971625	711	5459
1	108127664	712	3763
1	108283662	713	4929
1	108439855	714	4505
1	108595996	715	4717
1	108752034	716	3657
1	108908078	717	5194
1	109064145	718	4293
1	109220256	719	4346
1	109376351	720	4505
1	109532456	721	4823
1	109688523	722	4982
1	109844599	723	5618
1	110000706	724	5035
1	110156886	725	3869
1	110312891	726	4081
1	110469028	727	4929
1	110625129	728	5194
1	110781181	729	4664
1	110937291	730	4664
1	111093392	731	4770
1	111249381	732	4611
1	111405540	733	5035
1	111561668	734	4929
1	111717724	735	4982
1	111873811	736	4611
1	112029877	737	4717
1	112185952	738	4293
1	112342114	739	4770
1	112498199	740	4240
1	112654240	741	4717
1	112810367	742	4505
1	112966425	743	3975
1	113122483	744	3816
1	113278603	745	4876
1	113434652	746	3392
1	113590756	747	4028
1	113746881	748	5247
1	113902836	749	4558
1	114059015	750	4134
1	114215096	751	5141
1	114371220	752	3869
1	114527309	753	4611
1	114683349	754	4452
1	114839497	755	3869
1	114995454	756	4717
1	115151654	757	4558
1	115307779	758	5512
1	115463788	759	4823
1	115619901	760	4505
1	115775925	761	4293
1	115932015	762	5088
1	116088119	763	3710
1	116244172	764	4240
1	116400306	765	5724
1	116556436	766	4452
1	116712487	767	4452
1	116868588	768	5141
1	117024633	769	5035
1	117180740	770	4664
1	117336842	771	5300
1	117492939	772	4293
1	117649004	773	4876
1	117805168	774	4982
1	117961084	775	4240
1	118117396	776	4929
1	118273329	777	4611
1	118429528	778	5459
1	118585580	779	4717
1	118741711	780	3975
1	118897737	781	4452
1	119053791	782	5141
1	119209948	783	5141
1	119366066	784	4134
1	119522128	785	4611
1	119678200	786	3816
1	119834312	787	5088
1	119990404	788	4187
1	120146369	789	3975
1	120302553	790	4346
1	120458648	791	4028
1	120614669	792	4187
1	120770815	793	5300
1	120926764	794	3816
1	121082917	795	3869
1	121238994	796	3975
1	121395060	797	4505
1	121551113	798	4399
1	121707223	799	4134
1	121863274	800	4399
1	122019498	801	4664
1	122175573	802	4505
1	122331643	803	5247
1	122487667	804	4558
1	122643787	805	4558
1	122799879	806	5035
1	122956010	807	5035
1	123112050	808	4346
1	123268102	809	4505
1	123424284	810	4770
1	123580309	811	4293
1	123736403	812	4611
1	123892445	813	4452
1	124048553	814	4664
1	124204624	815	4134
1	124360784	816	5618
1	124516945	817	4717
1	124672937	818	4505
1	124829044	819	4611
1	124985184	820	4770
1	125141247	821	4558
1	125297333	822	3710
1	125453364	823	4081
1	125609471	824	4240
1	125765572	825	5883
1	125921679	826	4823
1	126077707	827	4611
1	126233920	828	3869
1	126389928	829	4346
1	126546043	830	4452
1	126702070	831	4505
1	126858115	832	4611
1	127014257	833	4293
1	127170316	834	4399
1	127326327	835	4399
1	127482584	836	4558
1	127638563	837	4611
1	127794603	838	4558
1	127950687	839	4187
1	128106841	840	4558
1	128262896	841	5035
1	128419086	842	4611
1	128575105	843	4293
1	128731111	844	3710
1	128887264	845	5300
1	129043283	846	4505
1	129199459	847	4558
1	129355470	848	4134
1	129511619	849	4187
1	129667734	850	4240
1	129823767	851	4558
1	129979883	852	5194
1	130135885	853	4028
1	130292057	854	4823
1	130448134	855	4293
1	130604189	856	4399
1	130760339	857	5035
1	130916372	858	4505
1	131072497	859	4823
1	131228606	860	4876
1	131384592	861	4452
1	131540698	862	4134
1	131696754	863	4611
1	131853069	864	4929
1	132009016	865	5035
1	132165021	866	3710
1	132321224	867	5247
1	132477321	868	4929
1	132633394	869	4664
1	132789446	870	4558
1	132945522	871	4558
1	133101696	872	4929
1	133257712	873	4982
1	133413808	874	4346
1	133569880	875	4187
1	133726008	876	4770
1	133882158	877	4240
1	134038128	878	4399
1	134194382	879	4982
1	134350306	880	4134
1	134506430	881	4399
1	134662447	882	5777
1	134818606	883	5565
1	134974748	884	5035
1	135130760	885	4240
1	135286901	886	5565
1	135443047	887	4717
1	135599077	888	4558
1	135755159	889	4770
1	135911227	890	3551
1	136067300	891	4293
1	136223444	892	4240
1	136379569	893	4876
1	136535462	894	4399
1	136691636	895	4452
1	136847827	896	4770
1	137003894	897	3657
1	137159868	898	4452
1	137316047	899	3922
1	137472048	900	4664
1	137628209	901	4505
1	137784239	902	4611
1	137940234	903	4293
1	138096462	904	4558
1	138252556	905	4717
1	138408678	906	4982
1	138564700	907	4982
1	138720844	908	4187
1	138876954	909	3922
1	139032958	910	4558
1	139189015	911	4982
1	139345095	912	5088
1	139501203	913	3816
1	139657267	914	5035
1	139813387	915	4134
1	139969479	916	5618
1	140125541	917	4823
1	140281720	918	5141
1	140437789	919	5141
1	140593941	920	4823
1	140749975	921	4028
1	140906033	922	4876
1	141062114	923	5088
1	141218307	924	5035
1	141374279	925	4240
1	141530427	926	4611
1	141686533	927	4770
1	141842549	928	4452
1	141998742	929	5088
1	142154665	930	3763
1	142310859	931	4770
1	142466943	932	5353
1	142623019	933	4028
1	142779138	934	4611
1	142935166	935	4293
1	143091240	936	4452
1	143247392	937	5194
1	143403536	938	5247
1	143559545	939	4505
1	143715530	940	4399
1	143871785	941	4346
1	144027660	942	4293
1	144183858	943	4240
1	144340052	944	5035
1	144496084	945	4664
1	144652205	946	4505
1	144808226	947	4770
1	144964339	948	4823
1	145120335	949	5194
1	145276582	950	5353
1	145432590	951	4770
1	145588734	952	4876
1	145744841	953	4982
1	145900926	954	4823
1	146057040	955	4452
1	146213124	956	4399
1	146369097	957	3975
1	146525305	958	4134
1	146681390	959	4558
1	146837431	960	4611
1	146993543	961	5088
1	147149638	962	4452
1	147305630	963	3922
1	147461859	964	5353
1	147617864	965	4240
1	147773958	966	4664
1	147930079	967	5353
1	148086145	968	4187
1	148242238	969	5353
1	148398332	970	4452
1	148554380	971	4187
1	148710464	972	5194
1	148866598	973	4982
1	149022596	974	4399
1	149178733	975	4081
1	149334848	976	4505
1	149490908	977	4293
1	149647040	978	4664
1	149803088	979	4558
1	149959189	980	4664
1	150115375	981	4452
1	150271413	982	5088
1	150427456	983	4240
1	150583557	984	4823
1	150739652	985	4823
1	150895725	986	5088
1	151051863	987	4134
1	151207901	988	5088
1	151364089	989	4293
1	151520089	990	3922
1	151676178	991	4611
1	151832291	992	5512
1	151988368	993	5353
1	152144471	994	4399
1	152300531	995	4505
1	152456606	996	5035
1	152612719	997	5247
1	152768738	998	5194
1	152924926	999	4558
2	78158617	520	27025
2	78314742	521	33285
2	78470725	522	33192
2	78626956	523	33307
2	78782997	524	33234
2	78939059	525	33233
2	79095199	526	33251
2	79251205	527	33197
2	79407413	528	33279
2	79563441	529	33219
2	79719599	530	33276
2	79875684	531	33231
2	80031696	532	33235
2	80187757	533	33232
2	80343928	534	33268
2	80500075	535	33274
2	80656053	536	33171
2	80812200	537	33259
2	80968283	538	33230
2	81124398	539	33250
2	81280585	540	33303
2	81436465	541	33169
2	81592628	542	33295
2	81748740	543	33270
2	81904818	544	33220
2	82060776	545	33191
2	82216955	546	33272
2	82373112	547	33273
2	82529129	548	33219
2	82685212	549	33245
2	82841336	550	33265
2	82997427	551	33259
2	83153462	552	33221
2	83309623	553	33299
2	83465715	554	33234
2	83621709	555	33205
2	83777847	556	33262
2	83933908	557	33226
2	84089958	558	33233
2	84246027	559	33253
2	84402201	560	33287
2	84558281	561	33242
2	84714433	562	33242
2	84870467	563	33214
2	85026546	564	33246
2	85182715	565	33288
2	85338752	566	33229
2	85494848	567	33259
2	85650868	568	33230
2	85806974	569	33289
2	85963079	570	33253
2	86119175	571	33232
2	86275249	572	33237
2	86431331	573	33240
2	86587422	574	33279
2	86743495	575	33265
2	86899548	576	33230
2	87055638	577	33235
2	87211736	578	33240
2	87367872	579	33279
2	87523866	580	33193
2	87680037	581	33293
2	87836137	582	33222
2	87992243	583	33246
2	88148317	584	33243
2	88304390	585	33231
2	88460435	586	33235
2	88616515	587	33267
2	88772599	588	33247
2	88928682	589	33239
2	89084910	590	33317
2	89240849	591	33188
2	89396912	592	33232
2	89553055	593	33270
2	89709179	594	33267
2	89865243	595	33204
2	90021372	596	33254
2	90177468	597	33253
2	90333512	598	33224
2	90489660	599	33247
2	90645793	600	33256
2	90801813	601	33194
2	90957842	602	33234
2	91113952	603	33233
2	91270086	604	33260
2	91426221	605	33266
2	91582192	606	33204
2	91738345	607	33271
2	91894483	608	33284
2	92050567	609	33238
2	92206576	610	33214
2	92362824	611	33363
2	92518778	612	33176
2	92674906	613	33266
2	92831013	614	33255
2	92987111	615	33236
2	93143118	616	33213
2	93299279	617	33279
2	93455300	618	33217
2	93611419	619	33266
2	93767460	620	33237
2	93923685	621	33313
2	94079619	622	33181
2	94235762	623	33267
2	94391845	624	33257
2	94547911	625	33214
2	94703977	626	33245
2	94860126	627	33272
2	95016211	628	33234
2	95172317	629	33280
2	95328468	630	33261
2	95484461	631	33191
2	95640559	632	33255
2	95796621	633	33242
2	95952761	634	33257
2	96108831	635	33217
2	96264863	636	33218
2	96421026	637	33264
2	96577164	638	33269
2	96733260	639	33253
2	96889256	640	33188
2	97045451	641	33284
2	97201520	642	33244
2	97357592	643	33244
2	97513635	644	33232
2	97669643	645	33209
2	97825909	646	33338
2	97981891	647	33197
2	98138083	648	33286
2	98293999	649	33151
2	98450176	650	33294
2	98606251	651	33247
2	98762300	652	33228
2	98918439	653	33283
2	99074489	654	33248
2	99230695	655	33275
2	99386703	656	33198
2	99542788	657	33249
2	99698886	658	33242
2	99854927	659	33222
2	100011013	660	33236
2	100167229	661	33322
2	100323231	662	33216
2	100479328	663	33258
2	100635390	664	33236
2	100791419	665	33213
2	100947569	666	33286
2	101103627	667	33234
2	101259641	668	33231
2	101415760	669	33257
2	101571885	670	33260
2	101727924	671	33254
2	101884043	672	33266
2	102040129	673	33248
2	102196286	674	33283
2	102352411	675	33272
2	102508430	676	33231
2	102664464	677	33214
2	102820580	678	33248
2	102976732	679	33263
2	103132783	680	33257
2	103288862	681	33228
2	103444847	682	33187
2	103601018	683	33284
2	103757031	684	33189
2	103913247	685	33292
2	104069297	686	33252
2	104225382	687	33240
2	104381485	688	33237
2	104537614	689	33257
2	104693789	690	33267
2	104849830	691	33242
2	105005797	692	33182
2	105161885	693	33243
2	105318067	694	33281
2	105474189	695	33267
2	105630144	696	33166
2	105786264	697	33256
2	105942416	698	33282
2	106098568	699	33302
2	106254598	700	33197
2	106410631	701	33233
2	106566727	702	33241
2	106722863	703	33270
2	106878894	704	33220
2	107035076	705	33278
2	107191197	706	33261
2	107347219	707	33214
2	107503309	708	33253
2	107659385	709	33228
2	107815528	710	33246
2	107971625	711	33225
2	108127664	712	33244
2	108283662	713	33196
2	108439855	714	33300
2	108595996	715	33268
2	108752034	716	33252
2	108908078	717	33206
2	109064145	718	33243
2	109220256	719	33269
2	109376351	720	33251
2	109532456	721	33247
2	109688523	722	33229
2	109844599	723	33210
2	110000706	724	33242
2	110156886	725	33317
2	110312891	726	33218
2	110469028	727	33260
2	110625129	728	33240
2	110781181	729	33225
2	110937291	730	33254
2	111093392	731	33252
2	111249381	732	33195
2	111405540	733	33268
2	111561668	734	33261
2	111717724	735	33218
2	111873811	736	33244
2	112029877	737	33236
2	112185952	738	33247
2	112342114	739	33277
2	112498199	740	33259
2	112654240	741	33218
2	112810367	742	33267
2	112966425	743	33253
2	113122483	744	33252
2	113278603	745	33253
2	113434652	746	33265
2	113590756	747	33269
2	113746881	748	33245
2	113902836	749	33185
2	114059015	750	33303
2	114215096	751	33226
2	114371220	752	33289
2	114527309	753	33245
2	114683349	754	33225
2	114839497	755	33301
2	114995454	756	33176
2	115151654	757	33302
2	115307779	758	33243
2	115463788	759	33199
2	115619901	760	33260
2	115775925	761	33227
2	115932015	762	33232
2	116088119	763	33278
2	116244172	764	33243
2	116400306	765	33236
2	116556436	766	33270
2	116712487	767	33236
2	116868588	768	33236
2	117024633	769	33211
2	117180740	770	33258
2	117336842	771	33232
2	117492939	772	33258
2	117649004	773	33231
2	117805168	774	33272
2	117961084	775	33169
2	118117396	776	33353
2	118273329	777	33167
2	118429528	778	33276
2	118585580	779	33229
2	118741711	780	33284
2	118897737	781	33218
2	119053791	782	33218
2	119209948	783	33264
2	119366066	784	33273
2	119522128	785	33237
2	119678200	786	33259
2	119834312	787	33243
2	119990404	788	33264
2	120146369	789	33201
2	120302553	790	33300
2	120458648	791	33270
2	120614669	792	33223
2	120770815	793	33254
2	120926764	794	33203
2	121082917	795	33298
2	121238994	796	33257
2	121395060	797	33242
2	121551113	798	33233
2	121707223	799	33269
2	121863274	800	33237
2	122019498	801	33311
2	122175573	802	33241
2	122331643	803	33223
2	122487667	804	33214
2	122643787	805	33262
2	122799879	806	33240
2	122956010	807	33254
2	123112050	808	33228
2	123268102	809	33235
2	123424284	810	33287
2	123580309	811	33222
2	123736403	812	33253
2	123892445	813	33226
2	124048553	814	33253
2	124204624	815	33255
2	124360784	816	33252
2	124516945	817	33278
2	124672937	818	33205
2	124829044	819	33254
2	124985184	820	33266
2	125141247	821	33239
2	125297333	822	33269
2	125453364	823	33231
2	125609471	824	33270
2	125765572	825	33215
2	125921679	826	33248
2	126077707	827	33220
2	126233920	828	33328
2	126389928	829	33212
2	126546043	830	33268
2	126702070	831	33217
2	126858115	832	33223
2	127014257	833	33286
2	127170316	834	33236
2	127326327	835	33212
2	127482584	836	33336
2	127638563	837	33190
2	127794603	838	33222
2	127950687	839	33260
2	128106841	840	33279
2	128262896	841	33216
2	128419086	842	33301
2	128575105	843	33219
2	128731111	844	33229
2	128887264	845	33263
2	129043283	846	33213
2	129199459	847	33290
2	129355470	848	33225
2	129511619	849	33287
2	129667734	850	33268
2	129823767	851	33224
2	129979883	852	33242
2	130135885	853	33218
2	130292057	854	33286
2	130448134	855	33248
2	130604189	856	33234
2	130760339	857	33269
2	130916372	858	33220
2	131072497	859	33257
2	131228606	860	33253
2	131384592	861	33198
2	131540698	862	33267
2	131696754	863	33234
2	131853069	864	33349
2	132009016	865	33162
2	132165021	866	33234
2	132321224	867	33284
2	132477321	868	33240
2	132633394	869	33241
2	132789446	870	33228
2	132945522	871	33240
2	133101696	872	33284
2	133257712	873	33198
2	133413808	874	33256
2	133569880	875	33254
2	133726008	876	33260
2	133882158	877	33286
2	134038128	878	33197
2	134194382	879	33317
2	134350306	880	33176
2	134506430	881	33274
2	134662447	882	33176
2	134818606	883	33253
2	134974748	884	33265
2	135130760	885	33217
2	135286901	886	33244
2	135443047	887	33276
2	135599077	888	33217
2	135755159	889	33237
2	135911227	890	33270
2	136067300	891	33246
2	136223444	892	33283
2	136379569	893	33261
2	136535462	894	33153
2	136691636	895	33292
2	136847827	896	33297
2	137003894	897	33261
2	137159868	898	33192
2	137316047	899	33315
2	137472048	900	33199
2	137628209	901	33284
2	137784239	902	33221
2	137940234	903	33207
2	138096462	904	33316
2	138252556	905	33250
2	138408678	906	33251
2	138564700	907	33201
2	138720844	908	33290
2	138876954	909	33275
2	139032958	910	33204
2	139189015	911	33224
2	139345095	912	33227
2	139501203	913	33277
2	139657267	914	33226
2	139813387	915	33274
2	139969479	916	33218
2	140125541	917	33231
2	140281720	918	33275
2	140437789	919	33220
2	140593941	920	33276
2	140749975	921	33234
2	140906033	922	33222
2	141062114	923	33233
2	141218307	924	33285
2	141374279	925	33197
2	141530427	926	33280
2	141686533	927	33249
2	141842549	928	33213
2	141998742	929	33289
2	142154665	930	33186
2	142310859	931	33293
2	142466943	932	33227
2	142623019	933	33255
2	142779138	934	33260
2	142935166	935	33229
2	143091240	936	33242
2	143247392	937	33260
2	143403536	938	33260
2	143559545	939	33208
2	143715530	940	33199
2	143871785	941	33341
2	144027660	942	33147
2	144183858	943	33310
2	144340052	944	33291
2	144496084	945	33215
2	144652205	946	33264
2	144808226	947	33212
2	144964339	948	33251
2	145120335	949	33182
2	145276582	950	33308
2	145432590	951	33200
2	145588734	952	33265
2	145744841	953	33249
2	145900926	954	33237
2	146057040	955	33262
2	146213124	956	33254
2	146369097	957	33205
2	146525305	958	33318
2	146681390	959	33250
2	146837431	960	33221
2	146993543	961	33243
2	147149638	962	33258
2	147305630	963	33216
2	147461859	964	33294
2	147617864	965	33219
2	147773958	966	33246
2	147930079	967	33240
2	148086145	968	33251
2	148242238	969	33226
2	148398332	970	33252
2	148554380	971	33242
2	148710464	972	33226
2	148866598	973	33257
2	149022596	974	33211
2	149178733	975	33284
2	149334848	976	33261
2	149490908	977	33245
2	149647040	978	33265
2	149803088	979	33226
2	149959189	980	33255
2	150115375	981	33298
2	150271413	982	33206
2	150427456	983	33238
2	150583557	984	33245
2	150739652	985	33242
2	150895725	986	33229
2	151051863	987	33283
2	151207901	988	33206
2	151364089	989	33309
2	151520089	990	33220
2	151676178	991	33245
2	151832291	992	33237
2	151988368	993	33218
2	152144471	994	33258
2	152300531	995	33239
2	152456606	996	33226
2	152612719	997	33239
2	152768738	998	33199
2	152924926	999	33296
3	78158617	520	0
3	78314742	521	0
3	78470725	522	0
3	78626956	523	0
3	78782997	524	0
3	78939059	525	0
3	79095199	526	0
3	79251205	527	0
3	79407413	528	0
3	79563441	529	0
3	79719599	530	0
3	79875684	531	0
3	80031696	532	0
3	80187757	533	0
3	80343928	534	0
3	80500075	535	0
3	80656053	536	0
3	80812200	537	0
3	80968283	538	0
3	81124398	539	0
3	81280585	540	0
3	81436465	541	0
3	81592628	542	0
3	81748740	543	0
3	81904818	544	0
3	82060776	545	0
3	82216955	546	0
3	82373112	547	0
3	82529129	548	0
3	82685212	549	0
3	82841336	550	0
3	82997427	551	0
3	83153462	552	0
3	83309623	553	0
3	83465715	554	0
3	83621709	555	0
3	83777847	556	0
3	83933908	557	0
3	84089958	558	0
3	84246027	559	0
3	84402201	560	0
3	84558281	561	0
3	84714433	562	0
3	84870467	563	0
3	85026546	564	0
3	85182715	565	0
3	85338752	566	0
3	85494848	567	0
3	85650868	568	0
3	85806974	569	0
3	85963079	570	0
3	86119175	571	0
3	86275249	572	0
3	86431331	573	0
3	86587422	574	0
3	86743495	575	0
3	86899548	576	0
3	87055638	577	0
3	87211736	578	0
3	87367872	579	0
3	87523866	580	0
3	87680037	581	0
3	87836137	582	0
3	87992243	583	0
3	88148317	584	0
3	88304390	585	0
3	88460435	586	0
3	88616515	587	0
3	88772599	588	0
3	88928682	589	0
3	89084910	590	0
3	89240849	591	0
3	89396912	592	0
3	89553055	593	0
3	89709179	594	0
3	89865243	595	0
3	90021372	596	0
3	90177468	597	0
3	90333512	598	0
3	90489660	599	0
3	90645793	600	0
3	90801813	601	0
3	90957842	602	0
3	91113952	603	0
3	91270086	604	0
3	91426221	605	0
3	91582192	606	0
3	91738345	607	0
3	91894483	608	0
3	92050567	609	0
3	92206576	610	0
3	92362824	611	0
3	92518778	612	0
3	92674906	613	0
3	92831013	614	0
3	92987111	615	0
3	93143118	616	0
3	93299279	617	0
3	93455300	618	0
3	93611419	619	0
3	93767460	620	0
3	93923685	621	0
3	94079619	622	0
3	94235762	623	0
3	94391845	624	0
3	94547911	625	0
3	94703977	626	0
3	94860126	627	0
3	95016211	628	0
3	95172317	629	0
3	95328468	630	0
3	95484461	631	0
3	95640559	632	0
3	95796621	633	0
3	95952761	634	0
3	96108831	635	0
3	96264863	636	0
3	96421026	637	0
3	96577164	638	0
3	96733260	639	0
3	96889256	640	0
3	97045451	641	0
3	97201520	642	0
3	97357592	643	0
3	97513635	644	0
3	97669643	645	0
3	97825909	646	0
3	97981891	647	0
3	98138083	648	0
3	98293999	649	0
3	98450176	650	0
3	98606251	651	0
3	98762300	652	0
3	98918439	653	0
3	99074489	654	0
3	99230695	655	0
3	99386703	656	0
3	99542788	657	0
3	99698886	658	0
3	99854927	659	0
3	100011013	660	0
3	100167229	661	0
3	100323231	662	0
3	100479328	663	0
3	100635390	664	0
3	100791419	665	0
3	100947569	666	0
3	101103627	667	0
3	101259641	668	0
3	101415760	669	0
3	101571885	670	0
3	101727924	671	0
3	101884043	672	0
3	102040129	673	0
3	102196286	674	0
3	102352411	675	0
3	102508430	676	0
3	102664464	677	0
3	102820580	678	0
3	102976732	679	0
3	103132783	680	0
3	103288862	681	0
3	103444847	682	0
3	103601018	683	0
3	103757031	684	0
3	103913247	685	0
3	104069297	686	0
3	104225382	687	0
3	104381485	688	0
3	104537614	689	0
3	104693789	690	0
3	104849830	691	0
3	105005797	692	0
3	105161885	693	0
3	105318067	694	0
3	105474189	695	0
3	105630144	696	0
3	105786264	697	0
3	105942416	698	0
3	106098568	699	0
3	106254598	700	0
3	106410631	701	0
3	106566727	702	0
3	106722863	703	0
3	106878894	704	0
3	107035076	705	0
3	107191197	706	0
3	107347219	707	0
3	107503309	708	0
3	107659385	709	0
3	107815528	710	0
3	107971625	711	0
3	108127664	712	0
3	108283662	713	0
3	108439855	714	0
3	108595996	715	0
3	108752034	716	0
3	108908078	717	0
3	109064145	718	0
3	109220256	719	0
3	109376351	720	0
3	109532456	721	0
3	109688523	722	0
3	109844599	723	0
3	110000706	724	0
3	110156886	725	0
3	110312891	726	0
3	110469028	727	0
3	110625129	728	0
3	110781181	729	0
3	110937291	730	0
3	111093392	731	0
3	111249381	732	0
3	111405540	733	0
3	111561668	734	0
3	111717724	735	0
3	111873811	736	0
3	112029877	737	0
3	112185952	738	0
3	112342114	739	0
3	112498199	740	0
3	112654240	741	0
3	112810367	742	0
3	112966425	743	0
3	113122483	744	0
3	113278603	745	0
3	113434652	746	0
3	113590756	747	0
3	113746881	748	0
3	113902836	749	0
3	114059015	750	0
3	114215096	751	0
3	114371220	752	0
3	114527309	753	0
3	114683349	754	0
3	114839497	755	0
3	114995454	756	0
3	115151654	757	0
3	115307779	758	0
3	115463788	759	0
3	115619901	760	0
3	115775925	761	0
3	115932015	762	0
3	116088119	763	0
3	116244172	764	0
3	116400306	765	0
3	116556436	766	0
3	116712487	767	0
3	116868588	768	0
3	117024633	769	0
3	117180740	770	0
3	117336842	771	0
3	117492939	772	0
3	117649004	773	0
3	117805168	774	0
3	117961084	775	0
3	118117396	776	0
3	118273329	777	0
3	118429528	778	0
3	118585580	779	0
3	118741711	780	0
3	118897737	781	0
3	119053791	782	0
3	119209948	783	0
3	119366066	784	0
3	119522128	785	0
3	119678200	786	0
3	119834312	787	0
3	119990404	788	0
3	120146369	789	0
3	120302553	790	0
3	120458648	791	0
3	120614669	792	0
3	120770815	793	0
3	120926764	794	0
3	121082917	795	0
3	121238994	796	0
3	121395060	797	0
3	121551113	798	0
3	121707223	799	0
3	121863274	800	0
3	122019498	801	0
3	122175573	802	0
3	122331643	803	0
3	122487667	804	0
3	122643787	805	0
3	122799879	806	0
3	122956010	807	0
3	123112050	808	0
3	123268102	809	0
3	123424284	810	0
3	123580309	811	0
3	123736403	812	0
3	123892445	813	0
3	124048553	814	0
3	124204624	815	0
3	124360784	816	0
3	124516945	817	0
3	124672937	818	0
3	124829044	819	0
3	124985184	820	0
3	125141247	821	0
3	125297333	822	0
3	125453364	823	0
3	125609471	824	0
3	125765572	825	0
3	125921679	826	0
3	126077707	827	0
3	126233920	828	0
3	126389928	829	0
3	126546043	830	0
3	126702070	831	0
3	126858115	832	0
3	127014257	833	0
3	127170316	834	0
3	127326327	835	0
3	127482584	836	0
3	127638563	837	0
3	127794603	838	0
3	127950687	839	0
3	128106841	840	0
3	128262896	841	0
3	128419086	842	0
3	128575105	843	0
3	128731111	844	0
3	128887264	845	0
3	129043283	846	0
3	129199459	847	0
3	129355470	848	0
3	129511619	849	0
3	129667734	850	0
3	129823767	851	0
3	129979883	852	0
3	130135885	853	0
3	130292057	854	0
3	130448134	855	0
3	130604189	856	0
3	130760339	857	0
3	130916372	858	0
3	131072497	859	0
3	131228606	860	0
3	131384592	861	0
3	131540698	862	0
3	131696754	863	0
3	131853069	864	0
3	132009016	865	0
3	132165021	866	0
3	132321224	867	0
3	132477321	868	0
3	132633394	869	0
3	132789446	870	0
3	132945522	871	0
3	133101696	872	0
3	133257712	873	0
3	133413808	874	0
3	133569880	875	0
3	133726008	876	0
3	133882158	877	0
3	134038128	878	0
3	134194382	879	0
3	134350306	880	0
3	134506430	881	0
3	134662447	882	0
3	134818606	883	0
3	134974748	884	0
3	135130760	885	0
3	135286901	886	0
3	135443047	887	0
3	135599077	888	0
3	135755159	889	0
3	135911227	890	0
3	136067300	891	0
3	136223444	892	0
3	136379569	893	0
3	136535462	894	0
3	136691636	895	0
3	136847827	896	0
3	137003894	897	0
3	137159868	898	0
3	137316047	899	0
3	137472048	900	0
3	137628209	901	0
3	137784239	902	0
3	137940234	903	0
3	138096462	904	0
3	138252556	905	0
3	138408678	906	0
3	138564700	907	0
3	138720844	908	0
3	138876954	909	0
3	139032958	910	0
3	139189015	911	0
3	139345095	912	0
3	139501203	913	0
3	139657267	914	0
3	139813387	915	0
3	139969479	916	0
3	140125541	917	0
3	140281720	918	0
3	140437789	919	0
3	140593941	920	0
3	140749975	921	0
3	140906033	922	0
3	141062114	923	0
3	141218307	924	0
3	141374279	925	0
3	141530427	926	0
3	141686533	927	0
3	141842549	928	0
3	141998742	929	0
3	142154665	930	0