version 2
run BasicCC-2-20100909-14:56:39-2176
attr configname BasicCC
attr datetime 20100909-14:56:39
attr delay 500ms
attr experiment BasicCC
attr inifile D:/Developement/Oversim2/multic/simulations/omnetpp.ini
attr iterationvars $delay=500ms
attr iterationvars2 "$delay=500ms, $repetition=0"
attr measurement $delay=500ms
attr network oversim.underlay.simpleunderlay.SimpleUnderlayNetwork
attr processid 2176
attr repetition 0
attr replication #0
attr resultdir results
attr runnumber 2
attr seedset 2

vector 1  SimpleUnderlayNetwork.globalObserver.globalStatistics  incoming_bytes  ETV
vector 2  SimpleUnderlayNetwork.globalObserver.globalStatistics  drops  ETV
vector 3  SimpleUnderlayNetwork.globalObserver.globalStatistics  delayed_acks  ETV
vector 4  SimpleUnderlayNetwork.globalObserver.globalStatistics  "GlobalNodeList: Number of nodes"  ETV
vector 5  SimpleUnderlayNetwork.globalObserver.globalStatistics  "GlobalNodeList: Number of bootstrapped malicious nodes"  ETV
1	78146167	519	4505
1	78302300	520	5194
1	78458341	521	5247
1	78614541	522	4876
1	78770524	523	4611
1	78926782	524	5035
1	79082799	525	4611
1	79238974	526	5194
1	79394971	527	4399
1	79551131	528	5300
1	79707181	529	5671
1	79863391	530	5989
1	80019406	531	5459
1	80175636	532	4876
1	80331599	533	5724
1	80487798	534	4558
1	80643827	535	4558
1	80799911	536	4505
1	80956028	537	4717
1	81112082	538	4452
1	81268229	539	6148
1	81424277	540	4982
1	81580363	541	5035
1	81736537	542	5247
1	81892703	543	5353
1	82048735	544	5035
1	82204761	545	5512
1	82360932	546	5406
1	82516950	547	5353
1	82673172	548	4929
1	82829222	549	5618
1	82985312	550	4982
1	83141468	551	5777
1	83297537	552	6095
1	83453623	553	5671
1	83609728	554	4558
1	83765873	555	4982
1	83921986	556	4452
1	84078026	557	4876
1	84234122	558	6095
1	84390235	559	6095
1	84546351	560	4611
1	84702447	561	4293
1	84858553	562	4664
1	85014546	563	5194
1	85170817	564	5141
1	85326866	565	5247
1	85482953	566	5035
1	85639044	567	4823
1	85795080	568	5353
1	85951119	569	4293
1	86107263	570	5247
1	86263354	571	5035
1	86419573	572	5406
1	86575665	573	4187
1	86731609	574	4081
1	86887717	575	5353
1	87043849	576	4664
1	87200078	577	5141
1	87356016	578	4929
1	87512071	579	4770
1	87668193	580	5088
1	87824296	581	4664
1	87980371	582	5459
1	88136448	583	4134
1	88292547	584	5141
1	88448626	585	4823
1	88604790	586	5459
1	88760789	587	4028
1	88916761	588	5194
1	89073016	589	5300
1	89229106	590	5512
1	89385238	591	4982
1	89541281	592	3445
1	89697389	593	4929
1	89853440	594	4505
1	90009541	595	5671
1	90165593	596	4346
1	90321751	597	5830
1	90477783	598	4452
1	90633850	599	4876
1	90790030	600	4558
1	90946225	601	5088
1	91102232	602	5512
1	91258340	603	4876
1	91414391	604	4452
1	91570521	605	4770
1	91726595	606	5247
1	91882695	607	5724
1	92038880	608	4876
1	92195019	609	5777
1	92351069	610	4823
1	92507131	611	5353
1	92663170	612	4770
1	92819256	613	4399
1	92975291	614	4982
1	93131494	615	5459
1	93287645	616	4505
1	93443560	617	4876
1	93599739	618	4876
1	93755865	619	5459
1	93912098	620	4717
1	94067989	621	4717
1	94224093	622	5565
1	94380262	623	4823
1	94536345	624	4505
1	94692459	625	5406
1	94848544	626	4929
1	95004677	627	4505
1	95160737	628	4240
1	95316943	629	5247
1	95472867	630	4558
1	95628931	631	5141
1	95785079	632	4452
1	95941154	633	5724
1	96097268	634	4876
1	96253414	635	4452
1	96409389	636	4452
1	96565642	637	5141
1	96721622	638	4505
1	96877637	639	4717
1	97033839	640	3604
1	97189836	641	5300
1	97345964	642	4240
1	97502115	643	5883
1	97658246	644	4717
1	97814345	645	4876
1	97970358	646	5141
1	98126546	647	4558
1	98282633	648	5565
1	98438686	649	4929
1	98594760	650	5406
1	98750865	651	5406
1	98906916	652	4982
1	99063021	653	5141
1	99219075	654	4558
1	99375287	655	4982
1	99531223	656	4770
1	99687391	657	5724
1	99843515	658	4770
1	99999553	659	4982
1	100155762	660	5194
1	100311900	661	4505
1	100467831	662	4664
1	100623997	663	5194
1	100780042	664	4187
1	100936128	665	5671
1	101092284	666	5406
1	101248349	667	4505
1	101404493	668	4717
1	101560592	669	5777
1	101716738	670	4611
1	101872823	671	5671
1	102028770	672	5088
1	102185059	673	5247
1	102341093	674	5353
1	102497134	675	4876
1	102653310	676	5459
1	102809346	677	5565
1	102965481	678	5406
1	103121624	679	5300
1	103277660	680	4399
1	103433757	681	4028
1	103589881	682	5671
1	103745890	683	5830
1	103902016	684	5300
1	104058058	685	4081
1	104214138	686	5512
1	104370268	687	4081
1	104526394	688	4293
1	104682391	689	4399
1	104838584	690	5141
1	104994613	691	4664
1	105150787	692	5353
1	105306793	693	4187
1	105462968	694	4611
1	105619008	695	5194
1	105775057	696	5194
1	105931257	697	4187
1	106087281	698	5035
1	106243403	699	5300
1	106399475	700	4081
1	106555627	701	5247
1	106711719	702	4823
1	106867851	703	5406
1	107023816	704	5353
1	107179969	705	5724
1	107336090	706	5035
1	107492205	707	4717
1	107648350	708	5088
1	107804425	709	4876
1	107960366	710	4505
1	108116535	711	5459
1	108272693	712	5141
1	108428735	713	5088
1	108584737	714	4717
1	108740847	715	4876
1	108896919	716	4611
1	109053111	717	4611
1	109209211	718	4558
1	109365240	719	4134
1	109521407	720	4505
1	109677342	721	5194
1	109833636	722	4664
1	109989554	723	4346
1	110145772	724	5300
1	110301850	725	4982
1	110457864	726	4929
1	110613989	727	4452
1	110770111	728	4876
1	110926240	729	5406
1	111082389	730	5194
1	111238398	731	4876
1	111394553	732	4028
1	111550600	733	4982
1	111706670	734	5247
1	111862799	735	5247
1	112018781	736	5247
1	112175029	737	4929
1	112331109	738	5035
1	112487087	739	4134
1	112643288	740	4982
1	112799329	741	4664
1	112955444	742	4929
1	113111455	743	4293
1	113267639	744	5035
1	113423644	745	4399
1	113579785	746	4823
1	113735882	747	4823
1	113892090	748	4823
1	114048041	749	4664
1	114204190	750	5830
1	114360132	751	4929
1	114516359	752	4028
1	114672430	753	4611
1	114828518	754	5353
1	114984553	755	4929
1	115140787	756	5035
1	115296821	757	4929
1	115452971	758	5724
1	115609027	759	4770
1	115765101	760	5194
1	115921229	761	3816
1	116077245	762	4611
1	116233360	763	5777
1	116389510	764	5565
1	116545540	765	4876
1	116701583	766	4240
1	116857762	767	4770
1	117013874	768	4505
1	117169993	769	4664
1	117326107	770	3816
1	117482151	771	4929
1	117638184	772	5353
1	117794308	773	5724
1	117950308	774	3763
1	118106513	775	5300
1	118262380	776	5247
1	118418775	777	5035
1	118574771	778	4611
1	118730856	779	5406
1	118886957	780	5353
1	119043131	781	4770
1	119199085	782	5088
1	119355212	783	4505
1	119511337	784	5247
1	119667397	785	4293
1	119823545	786	4611
1	119979621	787	4240
1	120135703	788	4240
1	120291809	789	5247
1	120447861	790	5035
1	120603904	791	4929
1	120760023	792	5777
1	120916209	793	4823
1	121072199	794	5035
1	121228375	795	5035
1	121384371	796	5247
1	121540506	797	4611
1	121696639	798	5088
1	121852764	799	4717
1	122008853	800	4982
1	122164921	801	4452
1	122321005	802	4823
1	122477066	803	5247
1	122633211	804	5353
1	122789317	805	5035
1	122945324	806	4452
1	123101431	807	5565
1	123257531	808	4664
1	123413642	809	5300
1	123569665	810	4982
1	123725939	811	4664
1	123882018	812	4664
1	124038149	813	4028
1	124194095	814	4611
1	124350318	815	4346
1	124506226	816	4770
1	124662470	817	5035
1	124818512	818	4929
1	124974550	819	4611
1	125130635	820	5300
1	125286762	821	5830
1	125442907	822	5194
1	125598904	823	4187
1	125755057	824	5247
1	125911118	825	3922
1	126067208	826	5936
1	126223385	827	4770
1	126379368	828	4558
1	126535567	829	5300
1	126691643	830	4876
1	126847837	831	4876
1	127003821	832	4929
1	127159947	833	5512
1	127316001	834	5300
1	127472068	835	4929
1	127628210	836	4929
1	127784290	837	5141
1	127940380	838	5353
1	128096490	839	4770
1	128252500	840	5194
1	128408630	841	4611
1	128564759	842	4982
1	128720872	843	4399
1	128876980	844	5618
1	129033065	845	4823
1	129189140	846	4823
1	129345164	847	4505
1	129501173	848	4399
1	129657386	849	5194
1	129813530	850	4664
1	129969673	851	5406
1	130125749	852	5035
1	130281725	853	4770
1	130437852	854	4558
1	130593992	855	3922
1	130750077	856	4664
1	130906174	857	4982
1	131062130	858	5194
1	131218376	859	5035
1	131374416	860	5459
1	131530482	861	4293
1	131686610	862	4293
1	131842688	863	4081
1	131998848	864	5088
1	132154912	865	4452
1	132310947	866	4611
1	132467086	867	5141
1	132623135	868	5088
1	132779331	869	4346
1	132935351	870	5141
1	133091378	871	3975
1	133247499	872	4982
1	133403608	873	4982
1	133559715	874	5141
1	133715884	875	4452
1	133871888	876	5353
1	134027928	877	5777
1	134184028	878	4876
1	134340196	879	5459
1	134496226	880	4240
1	134652292	881	4823
1	134808448	882	4293
1	134964527	883	4664
1	135120584	884	6201
1	135276846	885	5141
1	135432732	886	4823
1	135588953	887	5035
1	135744970	888	5088
1	135901155	889	4346
1	136057192	890	4982
1	136213280	891	6095
1	136369475	892	4452
1	136525511	893	4664
1	136681679	894	5141
1	136837668	895	4187
1	136993630	896	4929
1	137149977	897	6148
1	137306005	898	5777
1	137462167	899	5883
1	137618238	900	4611
1	137774286	901	4876
1	137930377	902	5512
1	138086487	903	5777
1	138242630	904	5353
1	138398676	905	5300
1	138554849	906	4929
1	138710905	907	4770
1	138866927	908	4876
1	139023080	909	5618
1	139179230	910	4982
1	139335296	911	5724
1	139491427	912	4823
1	139647578	913	4876
1	139803635	914	5565
1	139959611	915	5777
1	140115779	916	4346
1	140271864	917	4823
1	140427966	918	4293
1	140584058	919	4558
1	140740093	920	5194
1	140896243	921	4982
1	141052278	922	4452
1	141208509	923	5353
1	141364444	924	5353
1	141520565	925	5300
1	141676745	926	4770
1	141832874	927	5247
1	141988911	928	4664
1	142144941	929	4770
1	142301152	930	6996
1	142457150	931	4558
1	142613314	932	5247
1	142769497	933	5300
1	142925505	934	4717
1	143081642	935	4982
1	143237717	936	5247
1	143393784	937	4028
1	143549816	938	4505
1	143706032	939	4664
1	143862204	940	5088
1	144018120	941	4929
1	144174233	942	4505
1	144330325	943	5936
1	144486461	944	5300
1	144642565	945	4929
1	144798659	946	4664
1	144954767	947	4823
1	145110767	948	4611
1	145266896	949	4770
1	145423045	950	5353
1	145579073	951	5141
1	145735263	952	4982
1	145891220	953	5194
1	146047395	954	5247
1	146203596	955	5353
1	146359584	956	5300
1	146515683	957	4452
1	146671851	958	5459
1	146828003	959	5830
1	146984048	960	4558
1	147140158	961	4664
1	147296180	962	4293
1	147452192	963	4982
1	147608363	964	4823
1	147764424	965	5035
1	147920546	966	5300
1	148076676	967	4664
1	148232719	968	5300
1	148388857	969	5194
1	148544889	970	4717
1	148701009	971	5247
1	148857102	972	4611
1	149013300	973	5618
1	149169281	974	5247
1	149325399	975	4558
1	149481441	976	4770
1	149637615	977	4346
1	149793594	978	4399
1	149949733	979	4717
1	150105893	980	5406
1	150261860	981	4929
1	150418055	982	5194
1	150574216	983	4929
1	150730219	984	4982
1	150886311	985	4876
1	151042363	986	4770
1	151198554	987	4717
1	151354674	988	4558
1	151510665	989	4876
1	151666756	990	5247
1	151822797	991	5141
1	151978874	992	4134
1	152135073	993	3922
1	152291100	994	4982
1	152447177	995	4399
1	152603302	996	5512
1	152759424	997	4505
1	152915513	998	5247
1	153071556	999	4664
2	78146167	519	30237
2	78302300	520	33227
2	78458341	521	33189
2	78614541	522	33273
2	78770524	523	33260
2	78926782	524	33257
2	79082799	525	33243
2	79238974	526	33272
2	79394971	527	33203
2	79551131	528	33244
2	79707181	529	33199
2	79863391	530	33236
2	80019406	531	33167
2	80175636	532	33343
2	80331599	533	33174
2	80487798	534	33238
2	80643827	535	33289
2	80799911	536	33212
2	80956028	537	33302
2	81112082	538	33207
2	81268229	539	33251
2	81424277	540	33158
2	81580363	541	33289
2	81736537	542	33236
2	81892703	543	33247
2	82048735	544	33193
2	82204761	545	33261
2	82360932	546	33242
2	82516950	547	33165
2	82673172	548	33323
2	82829222	549	33249
2	82985312	550	33184
2	83141468	551	33230
2	83297537	552	33203
2	83453623	553	33214
2	83609728	554	33242
2	83765873	555	33277
2	83921986	556	33238
2	84078026	557	33223
2	84234122	558	33257
2	84390235	559	33211
2	84546351	560	33270
2	84702447	561	33251
2	84858553	562	33194
2	85014546	563	33228
2	85170817	564	33298
2	85326866	565	33209
2	85482953	566	33254
2	85639044	567	33208
2	85795080	568	33228
2	85951119	569	33236
2	86107263	570	33263
2	86263354	571	33227
2	86419573	572	33233
2	86575665	573	33306
2	86731609	574	33206
2	86887717	575	33221
2	87043849	576	33281
2	87200078	577	33245
2	87356016	578	33172
2	87512071	579	33289
2	87668193	580	33235
2	87824296	581	33259
2	87980371	582	33224
2	88136448	583	33229
2	88292547	584	33239
2	88448626	585	33253
2	88604790	586	33244
2	88760789	587	33234
2	88916761	588	33189
2	89073016	589	33273
2	89229106	590	33203
2	89385238	591	33302
2	89541281	592	33245
2	89697389	593	33227
2	89853440	594	33269
2	90009541	595	33253
2	90165593	596	33214
2	90321751	597	33261
2	90477783	598	33193
2	90633850	599	33229
2	90790030	600	33309
2	90946225	601	33225
2	91102232	602	33223
2	91258340	603	33266
2	91414391	604	33201
2	91570521	605	33241
2	91726595	606	33234
2	91882695	607	33245
2	92038880	608	33297
2	92195019	609	33202
2	92351069	610	33223
2	92507131	611	33213
2	92663170	612	33227
2	92819256	613	33268
2	92975291	614	33270
2	93131494	615	33222
2	93287645	616	33284
2	93443560	617	33204
2	93599739	618	33213
2	93755865	619	33219
2	93912098	620	33342
2	94067989	621	33144
2	94224093	622	33259
2	94380262	623	33268
2	94536345	624	33228
2	94692459	625	33231
2	94848544	626	33247
2	95004677	627	33298
2	95160737	628	33210
2	95316943	629	33285
2	95472867	630	33198
2	95628931	631	33236
2	95785079	632	33214
2	95941154	633	33197
2	96097268	634	33267
2	96253414	635	33294
2	96409389	636	33240
2	96565642	637	33251
2	96721622	638	33181
2	96877637	639	33290
2	97033839	640	33272
2	97189836	641	33233
2	97345964	642	33246
2	97502115	643	33224
2	97658246	644	33234
2	97814345	645	33236
2	97970358	646	33242
2	98126546	647	33267
2	98282633	648	33233
2	98438686	649	33259
2	98594760	650	33232
2	98750865	651	33215
2	98906916	652	33210
2	99063021	653	33260
2	99219075	654	33194
2	99375287	655	33307
2	99531223	656	33186
2	99687391	657	33254
2	99843515	658	33269
2	99999553	659	33201
2	100155762	660	33246
2	100311900	661	33306
2	100467831	662	33143
2	100623997	663	33280
2	100780042	664	33222
2	100936128	665	33231
2	101092284	666	33230
2	101248349	667	33256
2	101404493	668	33251
2	101560592	669	33239
2	101716738	670	33280
2	101872823	671	33178
2	102028770	672	33199
2	102185059	673	33308
2	102341093	674	33211
2	102497134	675	33258
2	102653310	676	33193
2	102809346	677	33260
2	102965481	678	33218
2	103121624	679	33253
2	103277660	680	33251
2	103433757	681	33253
2	103589881	682	33260
2	103745890	683	33176
2	103902016	684	33209
2	104058058	685	33261
2	104214138	686	33234
2	104370268	687	33268
2	104526394	688	33228
2	104682391	689	33224
2	104838584	690	33268
2	104994613	691	33274
2	105150787	692	33254
2	105306793	693	33230
2	105462968	694	33269
2	105619008	695	33187
2	105775057	696	33253
2	105931257	697	33289
2	106087281	698	33182
2	106243403	699	33333
2	106399475	700	33163
2	106555627	701	33252
2	106711719	702	33264
2	106867851	703	33270
2	107023816	704	33106
2	107179969	705	33293
2	107336090	706	33251
2	107492205	707	33256
2	107648350	708	33283
2	107804425	709	33180
2	107960366	710	33217
2	108116535	711	33229
2	108272693	712	33244
2	108428735	713	33236
2	108584737	714	33198
2	108740847	715	33295
2	108896919	716	33227
2	109053111	717	33284
2	109209211	718	33284
2	109365240	719	33177
2	109521407	720	33357
2	109677342	721	33143
2	109833636	722	33287
2	109989554	723	33198
2	110145772	724	33280
2	110301850	725	33224
2	110457864	726	33261
2	110613989	727	33241
2	110770111	728	33240
2	110926240	729	33248
2	111082389	730	33256
2	111238398	731	33218
2	111394553	732	33249
2	111550600	733	33259
2	111706670	734	33136
2	111862799	735	33290
2	112018781	736	33201
2	112175029	737	33318
2	112331109	738	33219
2	112487087	739	33238
2	112643288	740	33269
2	112799329	741	33258
2	112955444	742	33185
2	113111455	743	33270
2	113267639	744	33214
2	113423644	745	33286
2	113579785	746	33221
2	113735882	747	33259
2	113892090	748	33233
2	114048041	749	33252
2	114204190	750	33226
2	114360132	751	33229
2	114516359	752	33303
2	114672430	753	33186
2	114828518	754	33221
2	114984553	755	33222
2	115140787	756	33281
2	115296821	757	33248
2	115452971	758	33230
2	115609027	759	33207
2	115765101	760	33268
2	115921229	761	33279
2	116077245	762	33205
2	116233360	763	33227
2	116389510	764	33236
2	116545540	765	33215
2	116701583	766	33275
2	116857762	767	33303
2	117013874	768	33205
2	117169993	769	33265
2	117326107	770	33254
2	117482151	771	33252
2	117638184	772	33219
2	117794308	773	33190
2	117950308	774	33257
2	118106513	775	33263
2	118262380	776	33198
2	118418775	777	33294
2	118574771	778	33196
2	118730856	779	33247
2	118886957	780	33261
2	119043131	781	33234
2	119199085	782	33201
2	119355212	783	33310
2	119511337	784	33226
2	119667397	785	33236
2	119823545	786	33232
2	119979621	787	33272
2	120135703	788	33250
2	120291809	789	33229
2	120447861	790	33203
2	120603904	791	33259
2	120760023	792	33207
2	120916209	793	33294
2	121072199	794	33198
2	121228375	795	33243
2	121384371	796	33229
2	121540506	797	33275
2	121696639	798	33241
2	121852764	799	33229
2	122008853	800	33250
2	122164921	801	33282
2	122321005	802	33186
2	122477066	803	33238
2	122633211	804	33241
2	122789317	805	33293
2	122945324	806	33184
2	123101431	807	33219
2	123257531	808	33245
2	123413642	809	33212
2	123569665	810	33228
2	123725939	811	33359
2	123882018	812	33211
2	124038149	813	33255
2	124194095	814	33201
2	124350318	815	33322
2	124506226	816	33205
2	124662470	817	33257
2	124818512	818	33227
2	124974550	819	33225
2	125130635	820	33218
2	125286762	821	33238
2	125442907	822	33247
2	125598904	823	33261
2	125755057	824	33257
2	125911118	825	33217
2	126067208	826	33231
2	126223385	827	33251
2	126379368	828	33214
2	126535567	829	33260
2	126691643	830	33271
2	126847837	831	33237
2	127003821	832	33253
2	127159947	833	33212
2	127316001	834	33251
2	127472068	835	33224
2	127628210	836	33226
2	127784290	837	33216
2	127940380	838	33225
2	128096490	839	33246
2	128252500	840	33247
2	128408630	841	33179
2	128564759	842	33344
2	128720872	843	33207
2	128876980	844	33273
2	129033065	845	33220
2	129189140	846	33209
2	129345164	847	33285
2	129501173	848	33218
2	129657386	849	33224
2	129813530	850	33220
2	129969673	851	33336
2	130125749	852	33190
2	130281725	853	33189
2	130437852	854	33292
2	130593992	855	33270
2	130750077	856	33248
2	130906174	857	33241
2	131062130	858	33187
2	131218376	859	33297
2	131374416	860	33190
2	131530482	861	33239
2	131686610	862	33328
2	131842688	863	33209
2	131998848	864	33280
2	132154912	865	33218
2	132310947	866	33255
2	132467086	867	33229
2	132623135	868	33227
2	132779331	869	33286
2	132935351	870	33204
2	133091378	871	33252
2	133247499	872	33253
2	133403608	873	33244
2	133559715	874	33253
2	133715884	875	33259
2	133871888	876	33178
2	134027928	877	33215
2	134184028	878	33274
2	134340196	879	33248
2	134496226	880	33225
2	134652292	881	33251
2	134808448	882	33284
2	134964527	883	33197
2	135120584	884	33197
2	135276846	885	33301
2	135432732	886	33129
2	135588953	887	33309
2	135744970	888	33216
2	135901155	889	33301
2	136057192	890	33217
2	136213280	891	33211
2	136369475	892	33252
2	136525511	893	33224
2	136681679	894	33278
2	136837668	895	33263
2	136993630	896	33223
2	137149977	897	33267
2	137306005	898	33164
2	137462167	899	33251
2	137618238	900	33265
2	137774286	901	33189
2	137930377	902	33253
2	138086487	903	33261
2	138242630	904	33172
2	138398676	905	33250
2	138554849	906	33279
2	138710905	907	33193
2	138866927	908	33247
2	139023080	909	33248
2	139179230	910	33240
2	139335296	911	33227
2	139491427	912	33222
2	139647578	913	33254
2	139803635	914	33197
2	139959611	915	33197
2	140115779	916	33291
2	140271864	917	33229
2	140427966	918	33296
2	140584058	919	33235
2	140740093	920	33213
2	140896243	921	33272
2	141052278	922	33217
2	141208509	923	33224
2	141364444	924	33166
2	141520565	925	33269
2	141676745	926	33323
2	141832874	927	33176
2	141988911	928	33269
2	142144941	929	33248
2	142301152	930	33196
2	142457150	931	33212
2	142613314	932	33267
2	142769497	933	33263
2	142925505	934	33208
2	143081642	935	33240
2	143237717	936	33239
2	143393784	937	33242
2	143549816	938	33246
2	143706032	939	33302
2	143862204	940	33260
2	144018120	941	33206
2	144174233	942	33252
2	144330325	943	33199
2	144486461	944	33193
2	144642565	945	33261
2	144798659	946	33269
2	144954767	947	33242
2	145110767	948	33173
2	145266896	949	33291
2	145423045	950	33280
2	145579073	951	33217
2	145735263	952	33218
2	145891220	953	33225
2	146047395	954	33268
2	146203596	955	33207
2	146359584	956	33245
2	146515683	957	33293
2	146671851	958	33186
2	146828003	959	33291
2	146984048	960	33188
2	147140158	961	33241
2	147296180	962	33268
2	147452192	963	33194
2	147608363	964	33240
2	147764424	965	33262
2	147920546	966	33237
2	148076676	967	33215
2	148232719	968	33250
2	148388857	969	33230
2	148544889	970	33241
2	148701009	971	33245
2	148857102	972	33263
2	149013300	973	33222
2	149169281	974	33195
2	149325399	975	33244
2	149481441	976	33285
2	149637615	977	33290
2	149793594	978	33212
2	149949733	979	33224
2	150105893	980	33253
2	150261860	981	33218
2	150418055	982	33222
2	150574216	983	33315
2	150730219	984	33200
2	150886311	985	33196
2	151042363	986	33277
2	151198554	987	33270
2	151354674	988	33249
2	151510665	989	33236
2	151666756	990	33214
2	151822797	991	33190
2	151978874	992	33306
2	152135073	993	33265
2	152291100	994	33210
2	152447177	995	33261
2	152603302	996	33273
2	152759424	997	33241
2	152915513	998	33216
2	153071556	999	33220
3	78146167	519	0
3	78302300	520	0
3	78458341	521	0
3	78614541	522	0
3	78770524	523	0
3	78926782	524	0
3	79082799	525	0
3	79238974	526	0
3	79394971	527	0
3	79551131	528	0
3	79707181	529	0
3	79863391	530	0
3	80019406	531	0
3	80175636	532	0
3	80331599	533	0
3	80487798	534	0
3	80643827	535	0
3	80799911	536	0
3	80956028	537	0
3	81112082	538	0
3	81268229	539	0
3	81424277	540	0
3	81580363	541	0
3	81736537	542	0
3	81892703	543	0
3	82048735	544	0
3	82204761	545	0
3	82360932	546	0
3	82516950	547	0
3	82673172	548	0
3	82829222	549	0
3	82985312	550	0
3	83141468	551	0
3	83297537	552	0
3	83453623	553	0
3	83609728	554	0
3	83765873	555	0
3	83921986	556	0
3	84078026	557	0
3	84234122	558	0
3	84390235	559	0
3	84546351	560	0
3	84702447	561	0
3	84858553	562	0
3	85014546	563	0
3	85170817	564	0
3	85326866	565	0
3	85482953	566	0
3	85639044	567	0
3	85795080	568	0
3	85951119	569	0
3	86107263	570	0
3	86263354	571	0
3	86419573	572	0
3	86575665	573	0
3	86731609	574	0
3	86887717	575	0
3	87043849	576	0
3	87200078	577	0
3	87356016	578	0
3	87512071	579	0
3	87668193	580	0
3	87824296	581	0
3	87980371	582	0
3	88136448	583	0
3	88292547	584	0
3	88448626	585	0
3	88604790	586	0
3	88760789	587	0
3	88916761	588	0
3	89073016	589	0
3	89229106	590	0
3	89385238	591	0
3	89541281	592	0
3	89697389	593	0
3	89853440	594	0
3	90009541	595	0
3	90165593	596	0
3	90321751	597	0
3	90477783	598	0
3	90633850	599	0
3	90790030	600	0
3	90946225	601	0
3	91102232	602	0
3	91258340	603	0
3	91414391	604	0
3	91570521	605	0
3	91726595	606	0
3	91882695	607	0
3	92038880	608	0
3	92195019	609	0
3	92351069	610	0
3	92507131	611	0
3	92663170	612	0
3	92819256	613	0
3	92975291	614	0
3	93131494	615	0
3	93287645	616	0
3	93443560	617	0
3	93599739	618	0
3	93755865	619	0
3	93912098	620	0
3	94067989	621	0
3	94224093	622	0
3	94380262	623	0
3	94536345	624	0
3	94692459	625	0
3	94848544	626	0
3	95004677	627	0
3	95160737	628	0
3	95316943	629	0
3	95472867	630	0
3	95628931	631	0
3	95785079	632	0
3	95941154	633	0
3	96097268	634	0
3	96253414	635	0
3	96409389	636	0
3	96565642	637	0
3	96721622	638	0
3	96877637	639	0
3	97033839	640	0
3	97189836	641	0
3	97345964	642	0
3	97502115	643	0
3	97658246	644	0
3	97814345	645	0
3	97970358	646	0
3	98126546	647	0
3	98282633	648	0
3	98438686	649	0
3	98594760	650	0
3	98750865	651	0
3	98906916	652	0
3	99063021	653	0
3	99219075	654	0
3	99375287	655	0
3	99531223	656	0
3	99687391	657	0
3	99843515	658	0
3	99999553	659	0
3	100155762	660	0
3	100311900	661	0
3	100467831	662	0
3	100623997	663	0
3	100780042	664	0
3	100936128	665	0
3	101092284	666	0
3	101248349	667	0
3	101404493	668	0
3	101560592	669	0
3	101716738	670	0
3	101872823	671	0
3	102028770	672	0
3	102185059	673	0
3	102341093	674	0
3	102497134	675	0
3	102653310	676	0
3	102809346	677	0
3	102965481	678	0
3	103121624	679	0
3	103277660	680	0
3	103433757	681	0
3	103589881	682	0
3	103745890	683	0
3	103902016	684	0
3	104058058	685	0
3	104214138	686	0
3	104370268	687	0
3	104526394	688	0
3	104682391	689	0
3	104838584	690	0
3	104994613	691	0
3	105150787	692	0
3	105306793	693	0
3	105462968	694	0
3	105619008	695	0
3	105775057	696	0
3	105931257	697	0
3	106087281	698	0
3	106243403	699	0
3	106399475	700	0
3	106555627	701	0
3	106711719	702	0
3	106867851	703	0
3	107023816	704	0
3	107179969	705	0
3	107336090	706	0
3	107492205	707	0
3	107648350	708	0
3	107804425	709	0
3	107960366	710	0
3	108116535	711	0
3	108272693	712	0
3	108428735	713	0
3	108584737	714	0
3	108740847	715	0
3	108896919	716	0
3	109053111	717	0
3	109209211	718	0
3	109365240	719	0
3	109521407	720	0
3	109677342	721	0
3	109833636	722	0
3	109989554	723	0
3	110145772	724	0
3	110301850	725	0
3	110457864	726	0
3	110613989	727	0
3	110770111	728	0
3	110926240	729	0
3	111082389	730	0
3	111238398	731	0
3	111394553	732	0
3	111550600	733	0
3	111706670	734	0
3	111862799	735	0
3	112018781	736	0
3	112175029	737	0
3	112331109	738	0
3	112487087	739	0
3	112643288	740	0
3	112799329	741	0
3	112955444	742	0
3	113111455	743	0
3	113267639	744	0
3	113423644	745	0
3	113579785	746	0
3	113735882	747	0
3	113892090	748	0
3	114048041	749	0
3	114204190	750	0
3	114360132	751	0
3	114516359	752	0
3	114672430	753	0
3	114828518	754	0
3	114984553	755	0
3	115140787	756	0
3	115296821	757	0
3	115452971	758	0
3	115609027	759	0
3	115765101	760	0
3	115921229	761	0
3	116077245	762	0
3	116233360	763	0
3	116389510	764	0
3	116545540	765	0
3	116701583	766	0
3	116857762	767	0
3	117013874	768	0
3	117169993	769	0
3	117326107	770	0
3	117482151	771	0
3	117638184	772	0
3	117794308	773	0
3	117950308	774	0
3	118106513	775	0
3	118262380	776	0
3	118418775	777	0
3	118574771	778	0
3	118730856	779	0
3	118886957	780	0
3	119043131	781	0
3	119199085	782	0
3	119355212	783	0
3	119511337	784	0
3	119667397	785	0
3	119823545	786	0
3	119979621	787	0
3	120135703	788	0
3	120291809	789	0
3	120447861	790	0
3	120603904	791	0
3	120760023	792	0
3	120916209	793	0
3	121072199	794	0
3	121228375	795	0
3	121384371	796	0
3	121540506	797	0
3	121696639	798	0
3	121852764	799	0
3	122008853	800	0
3	122164921	801	0
3	122321005	802	0
3	122477066	803	0
3	122633211	804	0
3	122789317	805	0
3	122945324	806	0
3	123101431	807	0
3	123257531	808	0
3	123413642	809	0
3	123569665	810	0
3	123725939	811	0
3	123882018	812	0
3	124038149	813	0
3	124194095	814	0
3	124350318	815	0
3	124506226	816	0
3	124662470	817	0
3	124818512	818	0
3	124974550	819	0
3	125130635	820	0
3	125286762	821	0
3	125442907	822	0
3	125598904	823	0
3	125755057	824	0
3	125911118	825	0
3	126067208	826	0
3	126223385	827	0
3	126379368	828	0
3	126535567	829	0
3	126691643	830	0
3	126847837	831	0
3	127003821	832	0
3	127159947	833	0
3	127316001	834	0
3	127472068	835	0
3	127628210	836	0
3	127784290	837	0
3	127940380	838	0
3	128096490	839	0
3	128252500	840	0
3	128408630	841	0
3	128564759	842	0
3	128720872	843	0
3	128876980	844	0
3	129033065	845	0
3	129189140	846	0
3	129345164	847	0
3	129501173	848	0
3	129657386	849	0
3	129813530	850	0
3	129969673	851	0
3	130125749	852	0
3	130281725	853	0
3	130437852	854	0
3	130593992	855	0
3	130750077	856	0
3	130906174	857	0
3	131062130	858	0
3	131218376	859	0
3	131374416	860	0
3	131530482	861	0
3	131686610	862	0
3	131842688	863	0
3	131998848	864	0
3	132154912	865	0
3	132310947	866	0
3	132467086	867	0
3	132623135	868	0
3	132779331	869	0
3	132935351	870	0
3	133091378	871	0
3	133247499	872	0
3	133403608	873	0
3	133559715	874	0
3	133715884	875	0
3	133871888	876	0
3	134027928	877	0
3	134184028	878	0
3	134340196	879	0
3	134496226	880	0
3	134652292	881	0
3	134808448	882	0
3	134964527	883	0
3	135120584	884	0
3	135276846	885	0
3	135432732	886	0
3	135588953	887	0
3	135744970	888	0
3	135901155	889	0
3	136057192	890	0
3	136213280	891	0
3	136369475	892	0
3	136525511	893	0
3	136681679	894	0
3	136837668	895	0
3	136993630	896	0
3	137149977	897	0
3	137306005	898	0
3	137462167	899	0
3	137618238	900	0
3	137774286	901	0
3	137930377	902	0
3	138086487	903	0
3	138242630	904	0
3	138398676	905	0
3	138554849	906	0
3	138710905	907	0
3	138866927	908	0
3	139023080	909	0
3	139179230	910	0
3	139335296	911	0
3	139491427	912	0
3	139647578	913	0
3	139803635	914	0
3	139959611	915	0
3	140115779	916	0
3	140271864	917	0
3	140427966	918	0
3	140584058	919	0
3	140740093	920	0
3	140896243	921	0
3	141052278	922	0
3	141208509	923	0
3	141364444	924	0
3	141520565	925	0
3	141676745	926	0
3	141832874	927	0