version 2
run PerfectCC-0-20100909-16:18:56-3532
attr configname PerfectCC
attr datetime 20100909-16:18:56
attr delay 50ms
attr experiment PerfectCC
attr inifile D:/Developement/Oversim2/multic/simulations/omnetpp.ini
attr iterationvars $delay=50ms
attr iterationvars2 "$delay=50ms, $repetition=0"
attr measurement $delay=50ms
attr network oversim.underlay.simpleunderlay.SimpleUnderlayNetwork
attr processid 3532
attr repetition 0
attr replication #0
attr resultdir results
attr runnumber 0
attr seedset 0

vector 1  SimpleUnderlayNetwork.globalObserver.globalStatistics  incoming_bytes  ETV
vector 2  SimpleUnderlayNetwork.globalObserver.globalStatistics  drops  ETV
vector 3  SimpleUnderlayNetwork.globalObserver.globalStatistics  delayed_acks  ETV
vector 4  SimpleUnderlayNetwork.globalObserver.globalStatistics  timetotimeouts  ETV
vector 5  SimpleUnderlayNetwork.globalObserver.globalStatistics  rate  ETV
vector 6  SimpleUnderlayNetwork.globalObserver.globalStatistics  "GlobalNodeList: Number of nodes"  ETV
vector 7  SimpleUnderlayNetwork.globalObserver.globalStatistics  "GlobalNodeList: Number of bootstrapped malicious nodes"  ETV
1	41994047	517	89464
1	42078087	518	89729
1	42162176	519	89782
1	42246178	520	89570
1	42329877	521	89040
1	42413862	522	89570
1	42497653	523	89146
1	42581636	524	89623
1	42665522	525	89358
1	42749521	526	89570
1	42833528	527	89676
1	42917416	528	89358
1	43001290	529	89305
1	43085320	530	89729
1	43169362	531	89676
1	43253491	532	89835
1	43337479	533	89623
1	43421547	534	89729
1	43505306	535	89093
1	43588988	536	88987
1	43673072	537	89782
1	43757075	538	89570
1	43840887	539	89252
1	43925200	540	90259
1	44009329	541	89835
1	44093478	542	89941
1	44177562	543	89782
1	44261587	544	89623
1	44345674	545	89835
1	44429794	546	89835
1	44513870	547	89729
1	44597787	548	89464
1	44681740	549	89517
1	44765641	550	89358
1	44849621	551	89623
1	44933583	552	89517
1	45017583	553	89570
1	45101653	554	89782
1	45185581	555	89464
1	45269426	556	89252
1	45353278	557	89358
1	45437241	558	89517
1	45521032	559	89146
1	45605096	560	89782
1	45688849	561	89093
1	45772585	562	89040
1	45856316	563	89093
1	45940275	564	89517
1	46024379	565	89782
1	46108387	566	89676
1	46192455	567	89729
1	46276294	568	89252
1	46360356	569	89782
1	46444162	570	89199
1	46528062	571	89358
1	46611936	572	89411
1	46695645	573	88987
1	46779441	574	89146
1	46863398	575	89570
1	46947461	576	89729
1	47031486	577	89623
1	47115447	578	89570
1	47199558	579	89835
1	47283281	580	88987
1	47367316	581	89729
1	47451223	582	89411
1	47534859	583	88828
1	47619002	584	89941
1	47703065	585	89729
1	47786832	586	89093
1	47870688	587	89358
1	47954720	588	89676
1	48038702	589	89517
1	48122738	590	89729
1	48206721	591	89570
1	48290540	592	89199
1	48374471	593	89517
1	48458721	594	90100
1	48542591	595	89305
1	48626526	596	89517
1	48710693	597	89941
1	48794484	598	89146
1	48878446	599	89570
1	48962562	600	89835
1	49046402	601	89252
1	49130543	602	89941
1	49214430	603	89358
1	49298528	604	89782
1	49382464	605	89517
1	49466381	606	89411
1	49550219	607	89252
1	49634332	608	89888
1	49718296	609	89517
1	49802298	610	89570
1	49886330	611	89729
1	49970247	612	89411
1	50054009	613	89093
1	50137941	614	89517
1	50221902	615	89517
1	50305958	616	89676
1	50389816	617	89358
1	50474030	618	90047
1	50557716	619	88934
1	50641814	620	89835
1	50725877	621	89729
1	50809765	622	89358
1	50893651	623	89411
1	50977662	624	89623
1	51061588	625	89411
1	51145467	626	89411
1	51229504	627	89676
1	51313611	628	89782
1	51397643	629	89729
1	51481611	630	89517
1	51565450	631	89252
1	51649432	632	89623
1	51733266	633	89252
1	51816954	634	88934
1	51901071	635	89888
1	51985082	636	89623
1	52068956	637	89305
1	52153095	638	89941
1	52237106	639	89623
1	52321084	640	89517
1	52405301	641	90100
1	52489157	642	89305
1	52573207	643	89676
1	52657200	644	89623
1	52741206	645	89623
1	52825123	646	89411
1	52909089	647	89570
1	52993021	648	89464
1	53076972	649	89464
1	53161093	650	89888
1	53245203	651	89835
1	53329048	652	89252
1	53412826	653	89199
1	53496967	654	89888
1	53580862	655	89358
1	53664880	656	89676
1	53748986	657	89835
1	53833064	658	89729
1	53916713	659	88934
1	54000677	660	89517
1	54084837	661	89888
1	54168664	662	89305
1	54252727	663	89729
1	54336674	664	89464
1	54420662	665	89623
1	54504829	666	89941
1	54588779	667	89464
1	54672577	668	89252
1	54756645	669	89729
1	54840847	670	89994
1	54924814	671	89570
1	55008929	672	89835
1	55092826	673	89358
1	55176937	674	89888
1	55260745	675	89199
1	55344671	676	89411
1	55428737	677	89782
1	55512956	678	90047
1	55596638	679	88934
1	55680252	680	88881
1	55764533	681	90153
1	55848579	682	89676
1	55932515	683	89517
1	56016661	684	89888
1	56100582	685	89411
1	56184331	686	89146
1	56268295	687	89517
1	56352263	688	89517
1	56436282	689	89676
1	56520319	690	89676
1	56604157	691	89252
1	56688230	692	89782
1	56772135	693	89411
1	56855952	694	89199
1	56940179	695	90100
1	57024367	696	89994
1	57108153	697	89146
1	57192042	698	89411
1	57276027	699	89570
1	57359949	700	89411
1	57443776	701	89305
1	57527766	702	89570
1	57611713	703	89464
1	57695727	704	89676
1	57779608	705	89358
1	57863586	706	89517
1	57947751	707	89994
1	58031627	708	89358
1	58115391	709	89093
1	58199208	710	89252
1	58283188	711	89570
1	58367296	712	89782
1	58451227	713	89517
1	58535188	714	89517
1	58619207	715	89623
1	58703529	716	90312
1	58787369	717	89252
1	58871157	718	89146
1	58955304	719	89941
1	59039312	720	89623
1	59123202	721	89358
1	59206984	722	89199
1	59290969	723	89570
1	59374839	724	89305
1	59458881	725	89729
1	59543022	726	89888
1	59626604	727	88722
1	59710671	728	89782
1	59794656	729	89570
1	59878494	730	89252
1	59962383	731	89411
1	60046680	732	90206
1	60130622	733	89464
1	60214745	734	89888
1	60298704	735	89517
1	60382703	736	89570
1	60466795	737	89835
1	60550728	738	89464
1	60634961	739	90047
1	60718731	740	89199
1	60802856	741	89835
1	60886725	742	89305
1	60970817	743	89835
1	61055010	744	89994
1	61138825	745	89199
1	61222898	746	89782
1	61306982	747	89782
1	61391089	748	89782
1	61475328	749	90153
1	61559350	750	89623
1	61643339	751	89570
1	61727415	752	89782
1	61811421	753	89623
1	61895235	754	89199
1	61979143	755	89464
1	62063159	756	89623
1	62147110	757	89464
1	62231536	758	90524
1	62315521	759	89570
1	62399467	760	89464
1	62483586	761	89888
1	62567469	762	89358
1	62651336	763	89305
1	62735325	764	89623
1	62819522	765	89994
1	62903649	766	89835
1	62987683	767	89729
1	63071775	768	89782
1	63155565	769	89146
1	63239239	770	88987
1	63323201	771	89517
1	63407147	772	89464
1	63491162	773	89676
1	63575254	774	89782
1	63658889	775	88828
1	63742843	776	89570
1	63826911	777	89729
1	63910827	778	89411
1	63994851	779	89676
1	64078831	780	89570
1	64162705	781	89305
1	64246709	782	89676
1	64330803	783	89782
1	64414802	784	89570
1	64498509	785	89040
1	64582359	786	89305
1	64666259	787	89358
1	64750389	788	89941
1	64834461	789	89729
1	64918569	790	89782
1	65002505	791	89517
1	65086589	792	89782
1	65170536	793	89464
1	65254606	794	89782
1	65338639	795	89676
1	65422561	796	89411
1	65506574	797	89676
1	65590455	798	89358
1	65674324	799	89305
1	65758179	800	89358
1	65842272	801	89782
1	65925934	802	88881
1	66009765	803	89305
1	66093594	804	89252
1	66177697	805	89782
1	66261810	806	89888
1	66345644	807	89252
1	66429439	808	89146
1	66513693	809	90153
1	66597850	810	89941
1	66681849	811	89570
1	66766102	812	90153
1	66849926	813	89252
1	66933821	814	89358
1	67017793	815	89570
1	67101792	816	89623
1	67185953	817	89888
1	67269968	818	89676
1	67353896	819	89464
1	67438004	820	89782
1	67521911	821	89464
1	67606024	822	89835
1	67690231	823	89994
1	67774510	824	90206
1	67858750	825	90100
1	67942748	826	89570
1	68026378	827	88881
1	68110358	828	89570
1	68194488	829	89835
1	68278158	830	88987
1	68362226	831	89729
1	68446148	832	89411
1	68529944	833	89252
1	68614068	834	89835
1	68697677	835	88775
1	68781452	836	89199
1	68865468	837	89623
1	68949233	838	89093
1	69033097	839	89358
1	69117045	840	89517
1	69200945	841	89358
1	69284850	842	89464
1	69368658	843	89199
1	69452470	844	89199
1	69536172	845	89040
1	69620609	846	90471
1	69704684	847	89729
1	69788664	848	89623
1	69872841	849	89941
1	69956555	850	88987
1	70040507	851	89570
1	70124469	852	89517
1	70208205	853	89040
1	70292115	854	89464
1	70376131	855	89623
1	70459766	856	88828
1	70543671	857	89464
1	70627505	858	89252
1	70711733	859	90047
1	70796090	860	90365
1	70879898	861	89199
1	70963787	862	89358
1	71047916	863	89888
1	71132099	864	89994
1	71215973	865	89305
1	71299753	866	89199
1	71383858	867	89835
1	71467550	868	88934
1	71551746	869	90047
1	71635835	870	89782
1	71719907	871	89729
1	71803798	872	89411
1	71887703	873	89411
1	71971625	874	89411
1	72055482	875	89358
1	72139390	876	89411
1	72223497	877	89782
1	72307293	878	89252
1	72391465	879	89941
1	72475490	880	89623
1	72559790	881	90259
1	72643697	882	89411
1	72727539	883	89252
1	72811452	884	89464
1	72895487	885	89676
1	72979331	886	89252
1	73063115	887	89199
1	73147043	888	89464
1	73230912	889	89305
1	73314949	890	89729
1	73399171	891	90047
1	73483113	892	89464
1	73567023	893	89464
1	73651091	894	89729
1	73735165	895	89729
1	73819130	896	89570
1	73903141	897	89623
1	73987192	898	89676
1	74071258	899	89782
1	74155322	900	89729
1	74239165	901	89252
1	74323282	902	89888
1	74407190	903	89411
1	74491140	904	89464
1	74575045	905	89464
1	74659110	906	89729
1	74743312	907	89994
1	74827669	908	90365
1	74911602	909	89464
1	74995369	910	89093
1	75079144	911	89199
1	75163215	912	89729
1	75246867	913	88881
1	75331015	914	89941
1	75415156	915	89888
1	75499566	916	90418
1	75583585	917	89676
1	75667465	918	89358
1	75751410	919	89464
1	75835448	920	89729
1	75919438	921	89570
1	76003099	922	88881
1	76086936	923	89305
1	76170765	924	89252
1	76254728	925	89517
1	76338354	926	88881
1	76422289	927	89464
1	76506024	928	89040
1	76590069	929	89729
1	76674366	930	90206
1	76758053	931	88934
1	76841698	932	88934
1	76925558	933	89305
1	77009272	934	88987
1	77093155	935	89411
1	77177088	936	89464
1	77261040	937	89464
1	77345234	938	90047
1	77429112	939	89358
1	77513137	940	89623
1	77596860	941	89093
1	77681032	942	89941
1	77764795	943	89093
1	77848811	944	89676
1	77932770	945	89517
1	78016744	946	89517
1	78100851	947	89888
1	78185080	948	90047
1	78268824	949	89040
1	78352912	950	89835
1	78436872	951	89517
1	78520709	952	89252
1	78604463	953	89146
1	78688921	954	90524
1	78772707	955	89146
1	78856700	956	89623
1	78940607	957	89411
1	79024502	958	89358
1	79108833	959	90312
1	79192787	960	89517
1	79276838	961	89676
1	79360874	962	89729
1	79444889	963	89623
1	79528754	964	89305
1	79612637	965	89411
1	79696341	966	88987
1	79779955	967	88775
1	79863902	968	89570
1	79947637	969	89040
1	80031477	970	89252
1	80115525	971	89729
1	80199630	972	89835
1	80283660	973	89623
1	80367905	974	90153
1	80451971	975	89729
1	80535991	976	89623
1	80620187	977	90047
1	80703995	978	89199
1	80787673	979	88934
1	80871805	980	89888
1	80955806	981	89623
1	81039727	982	89411
1	81123403	983	88987
1	81207206	984	89199
1	81291057	985	89252
1	81375047	986	89623
1	81459001	987	89517
1	81542821	988	89199
1	81626837	989	89676
1	81710713	990	89358
1	81794716	991	89570
1	81878596	992	89411
1	81962633	993	89676
1	82046445	994	89199
1	82130568	995	89888
1	82214683	996	89835
1	82298895	997	89994
1	82382691	998	89252
1	82466759	999	89729
2	41994047	517	0
2	42078087	518	0
2	42162176	519	0
2	42246178	520	0
2	42329877	521	0
2	42413862	522	0
2	42497653	523	0
2	42581636	524	0
2	42665522	525	0
2	42749521	526	0
2	42833528	527	0
2	42917416	528	0
2	43001290	529	0
2	43085320	530	0
2	43169362	531	0
2	43253491	532	0
2	43337479	533	0
2	43421547	534	0
2	43505306	535	0
2	43588988	536	0
2	43673072	537	0
2	43757075	538	0
2	43840887	539	0
2	43925200	540	0
2	44009329	541	0
2	44093478	542	0
2	44177562	543	0
2	44261587	544	0
2	44345674	545	0
2	44429794	546	0
2	44513870	547	0
2	44597787	548	0
2	44681740	549	0
2	44765641	550	0
2	44849621	551	0
2	44933583	552	0
2	45017583	553	0
2	45101653	554	0
2	45185581	555	0
2	45269426	556	0
2	45353278	557	0
2	45437241	558	0
2	45521032	559	0
2	45605096	560	0
2	45688849	561	0
2	45772585	562	0
2	45856316	563	0
2	45940275	564	0
2	46024379	565	0
2	46108387	566	0
2	46192455	567	0
2	46276294	568	0
2	46360356	569	0
2	46444162	570	0
2	46528062	571	0
2	46611936	572	0
2	46695645	573	0
2	46779441	574	0
2	46863398	575	0
2	46947461	576	0
2	47031486	577	0
2	47115447	578	0
2	47199558	579	0
2	47283281	580	0
2	47367316	581	0
2	47451223	582	0
2	47534859	583	0
2	47619002	584	0
2	47703065	585	0
2	47786832	586	0
2	47870688	587	0
2	47954720	588	0
2	48038702	589	0
2	48122738	590	0
2	48206721	591	0
2	48290540	592	0
2	48374471	593	0
2	48458721	594	0
2	48542591	595	0
2	48626526	596	0
2	48710693	597	0
2	48794484	598	0
2	48878446	599	0
2	48962562	600	0
2	49046402	601	0
2	49130543	602	0
2	49214430	603	0
2	49298528	604	0
2	49382464	605	0
2	49466381	606	0
2	49550219	607	0
2	49634332	608	0
2	49718296	609	0
2	49802298	610	0
2	49886330	611	0
2	49970247	612	0
2	50054009	613	0
2	50137941	614	0
2	50221902	615	0
2	50305958	616	0
2	50389816	617	0
2	50474030	618	0
2	50557716	619	0
2	50641814	620	0
2	50725877	621	0
2	50809765	622	0
2	50893651	623	0
2	50977662	624	0
2	51061588	625	0
2	51145467	626	0
2	51229504	627	0
2	51313611	628	0
2	51397643	629	0
2	51481611	630	0
2	51565450	631	0
2	51649432	632	0
2	51733266	633	0
2	51816954	634	0
2	51901071	635	0
2	51985082	636	0
2	52068956	637	0
2	52153095	638	0
2	52237106	639	0
2	52321084	640	0
2	52405301	641	0
2	52489157	642	0
2	52573207	643	0
2	52657200	644	0
2	52741206	645	0
2	52825123	646	0
2	52909089	647	0
2	52993021	648	0
2	53076972	649	0
2	53161093	650	0
2	53245203	651	0
2	53329048	652	0
2	53412826	653	0
2	53496967	654	0
2	53580862	655	0
2	53664880	656	0
2	53748986	657	0
2	53833064	658	0
2	53916713	659	0
2	54000677	660	0
2	54084837	661	0
2	54168664	662	0
2	54252727	663	0
2	54336674	664	0
2	54420662	665	0
2	54504829	666	0
2	54588779	667	0
2	54672577	668	0
2	54756645	669	0
2	54840847	670	0
2	54924814	671	0
2	55008929	672	0
2	55092826	673	0
2	55176937	674	0
2	55260745	675	0
2	55344671	676	0
2	55428737	677	0
2	55512956	678	0
2	55596638	679	0
2	55680252	680	0
2	55764533	681	0
2	55848579	682	0
2	55932515	683	0
2	56016661	684	0
2	56100582	685	0
2	56184331	686	0
2	56268295	687	0
2	56352263	688	0
2	56436282	689	0
2	56520319	690	0
2	56604157	691	0
2	56688230	692	0
2	56772135	693	0
2	56855952	694	0
2	56940179	695	0
2	57024367	696	0
2	57108153	697	0
2	57192042	698	0
2	57276027	699	0
2	57359949	700	0
2	57443776	701	0
2	57527766	702	0
2	57611713	703	0
2	57695727	704	0
2	57779608	705	0
2	57863586	706	0
2	57947751	707	0
2	58031627	708	0
2	58115391	709	0
2	58199208	710	0
2	58283188	711	0
2	58367296	712	0
2	58451227	713	0
2	58535188	714	0
2	58619207	715	0
2	58703529	716	0
2	58787369	717	0
2	58871157	718	0
2	58955304	719	0
2	59039312	720	0
2	59123202	721	0
2	59206984	722	0
2	59290969	723	0
2	59374839	724	0
2	59458881	725	0
2	59543022	726	0
2	59626604	727	0
2	59710671	728	0
2	59794656	729	0
2	59878494	730	0
2	59962383	731	0
2	60046680	732	0
2	60130622	733	0
2	60214745	734	0
2	60298704	735	0
2	60382703	736	0
2	60466795	737	0
2	60550728	738	0
2	60634961	739	0
2	60718731	740	0
2	60802856	741	0
2	60886725	742	0
2	60970817	743	0
2	61055010	744	0
2	61138825	745	0
2	61222898	746	0
2	61306982	747	0
2	61391089	748	0
2	61475328	749	0
2	61559350	750	0
2	61643339	751	0
2	61727415	752	0
2	61811421	753	0
2	61895235	754	0
2	61979143	755	0
2	62063159	756	0
2	62147110	757	0
2	62231536	758	0
2	62315521	759	0
2	62399467	760	0
2	62483586	761	0
2	62567469	762	0
2	62651336	763	0
2	62735325	764	0
2	62819522	765	0
2	62903649	766	0
2	62987683	767	0
2	63071775	768	0
2	63155565	769	0
2	63239239	770	0
2	63323201	771	0
2	63407147	772	0
2	63491162	773	0
2	63575254	774	0
2	63658889	775	0
2	63742843	776	0
2	63826911	777	0
2	63910827	778	0
2	63994851	779	0
2	64078831	780	0
2	64162705	781	0
2	64246709	782	0
2	64330803	783	0
2	64414802	784	0
2	64498509	785	0
2	64582359	786	0
2	64666259	787	0
2	64750389	788	0
2	64834461	789	0
2	64918569	790	0
2	65002505	791	0
2	65086589	792	0
2	65170536	793	0
2	65254606	794	0
2	65338639	795	0
2	65422561	796	0
2	65506574	797	0
2	65590455	798	0
2	65674324	799	0
2	65758179	800	0
2	65842272	801	0
2	65925934	802	0
2	66009765	803	0
2	66093594	804	0
2	66177697	805	0
2	66261810	806	0
2	66345644	807	0
2	66429439	808	0
2	66513693	809	0
2	66597850	810	0
2	66681849	811	0
2	66766102	812	0
2	66849926	813	0
2	66933821	814	0
2	67017793	815	0
2	67101792	816	0
2	67185953	817	0
2	67269968	818	0
2	67353896	819	0
2	67438004	820	0
2	67521911	821	0
2	67606024	822	0
2	67690231	823	0
2	67774510	824	0
2	67858750	825	0
2	67942748	826	0
2	68026378	827	0
2	68110358	828	0
2	68194488	829	0
2	68278158	830	0
2	68362226	831	0
2	68446148	832	0
2	68529944	833	0
2	68614068	834	0
2	68697677	835	0
2	68781452	836	0
2	68865468	837	0
2	68949233	838	0
2	69033097	839	0
2	69117045	840	0
2	69200945	841	0
2	69284850	842	0
2	69368658	843	0
2	69452470	844	0
2	69536172	845	0
2	69620609	846	0
2	69704684	847	0
2	69788664	848	0
2	69872841	849	0
2	69956555	850	0
2	70040507	851	0
2	70124469	852	0
2	70208205	853	0
2	70292115	854	0
2	70376131	855	0
2	70459766	856	0
2	70543671	857	0
2	70627505	858	0
2	70711733	859	0
2	70796090	860	0
2	70879898	861	0
2	70963787	862	0
2	71047916	863	0
2	71132099	864	0
2	71215973	865	0
2	71299753	866	0
2	71383858	867	0
2	71467550	868	0
2	71551746	869	0
2	71635835	870	0
2	71719907	871	0
2	71803798	872	0
2	71887703	873	0
2	71971625	874	0
2	72055482	875	0
2	72139390	876	0
2	72223497	877	0
2	72307293	878	0
2	72391465	879	0
2	72475490	880	0
2	72559790	881	0
2	72643697	882	0
2	72727539	883	0
2	72811452	884	0
2	72895487	885	0
2	72979331	886	0
2	73063115	887	0
2	73147043	888	0
2	73230912	889	0
2	73314949	890	0
2	73399171	891	0
2	73483113	892	0
2	73567023	893	0
2	73651091	894	0
2	73735165	895	0
2	73819130	896	0
2	73903141	897	0
2	73987192	898	0
2	74071258	899	0
2	74155322	900	0
2	74239165	901	0
2	74323282	902	0
2	74407190	903	0
2	74491140	904	0
2	74575045	905	0
2	74659110	906	0
2	74743312	907	0
2	74827669	908	0
2	74911602	909	0
2	74995369	910	0
2	75079144	911	0
2	75163215	912	0
2	75246867	913	0
2	75331015	914	0
2	75415156	915	0
2	75499566	916	0
2	75583585	917	0
2	75667465	918	0
2	75751410	919	0
2	75835448	920	0
2	75919438	921	0
2	76003099	922	0
2	76086936	923	0
2	76170765	924	0
2	76254728	925	0
2	76338354	926	0
2	76422289	927	0
2	76506024	928	0
2	76590069	929	0
2	76674366	930	0
2	76758053	931	0
2	76841698	932	0
2	76925558	933	0
2	77009272	934	0
2	77093155	935	0
2	77177088	936	0
2	77261040	937	0
2	77345234	938	0
2	77429112	939	0
2	77513137	940	0
2	77596860	941	0
2	77681032	942	0
2	77764795	943	0
2	77848811	944	0
2	77932770	945	0
2	78016744	946	0
2	78100851	947	0
2	78185080	948	0
2	78268824	949	0
2	78352912	950	0
2	78436872	951	0
2	78520709	952	0
2	78604463	953	0
2	78688921	954	0
2	78772707	955	0
2	78856700	956	0
2	78940607	957	0
2	79024502	958	0
2	79108833	959	0
2	79192787	960	0
2	79276838	961	0
2	79360874	962	0
2	79444889	963	0
2	79528754	964	0
2	79612637	965	0
2	79696341	966	0
2	79779955	967	0
2	79863902	968	0
2	79947637	969	0
2	80031477	970	0
2	80115525	971	0
2	80199630	972	0
2	80283660	973	0
2	80367905	974	0
2	80451971	975	0
2	80535991	976	0
2	80620187	977	0
2	80703995	978	0
2	80787673	979	0
2	80871805	980	0
2	80955806	981	0
2	81039727	982	0
2	81123403	983	0
2	81207206	984	0
2	81291057	985	0
2	81375047	986	0
2	81459001	987	0
2	81542821	988	0
2	81626837	989	0
2	81710713	990	0
2	81794716	991	0
2	81878596	992	0
2	81962633	993	0
2	82046445	994	0
2	82130568	995	0
2	82214683	996	0
2	82298895	997	0
2	82382691	998	0
2	82466759	999	0
3	41994047	517	0
3	42078087	518	4
3	42162176	519	6
3	42246178	520	6
3	42329877	521	6
3	42413862	522	7
3	42497653	523	2
3	42581636	524	0
3	42665522	525	4
3	42749521	526	3
3	42833528	527	5
3	42917416	528	2
3	43001290	529	4
3	43085320	530	2
3	43169362	531	0
3	43253491	532	5
3	43337479	533	0
3	43421547	534	3
3	43505306	535	4
3	43588988	536	5
3	43673072	537	3
3	43757075	538	4
3	43840887	539	4
3	43925200	540	3
3	44009329	541	6
3	44093478	542	11
3	44177562	543	5
3	44261587	544	3
3	44345674	545	4
3	44429794	546	2
3	44513870	547	1
3	44597787	548	6
3	44681740	549	4
3	44765641	550	4
3	44849621	551	1
3	44933583	552	5
3	45017583	553	0
3	45101653	554	2
3	45185581	555	3
3	45269426	556	1
3	45353278	557	4
3	45437241	558	6
3	45521032	559	5
3	45605096	560	4
3	45688849	561	4
3	45772585	562	5
3	45856316	563	4
3	45940275	564	4
3	46024379	565	4
3	46108387	566	4
3	46192455	567	1
3	46276294	568	4
3	46360356	569	2
3	46444162	570	5
3	46528062	571	4
3	46611936	572	4
3	46695645	573	8
3	46779441	574	4
3	46863398	575	4
3	46947461	576	3
3	47031486	577	7
3	47115447	578	3
3	47199558	579	9
3	47283281	580	3
3	47367316	581	4
3	47451223	582	3
3	47534859	583	5
3	47619002	584	8
3	47703065	585	4
3	47786832	586	1
3	47870688	587	3
3	47954720	588	4
3	48038702	589	4
3	48122738	590	2
3	48206721	591	4
3	48290540	592	5
3	48374471	593	4
3	48458721	594	2
3	48542591	595	1
3	48626526	596	3
3	48710693	597	4
3	48794484	598	3
3	48878446	599	3
3	48962562	600	5
3	49046402	601	2
3	49130543	602	1
3	49214430	603	3
3	49298528	604	2
3	49382464	605	5
3	49466381	606	3
3	49550219	607	3
3	49634332	608	4
3	49718296	609	2
3	49802298	610	3
3	49886330	611	4
3	49970247	612	4
3	50054009	613	7
3	50137941	614	6
3	50221902	615	4
3	50305958	616	0
3	50389816	617	4
3	50474030	618	4
3	50557716	619	2
3	50641814	620	3
3	50725877	621	3
3	50809765	622	9
3	50893651	623	5
3	50977662	624	3
3	51061588	625	2
3	51145467	626	3
3	51229504	627	3
3	51313611	628	7
3	51397643	629	6
3	51481611	630	6
3	51565450	631	5
3	51649432	632	1
3	51733266	633	11
3	51816954	634	5
3	51901071	635	3
3	51985082	636	2
3	52068956	637	1
3	52153095	638	4
3	52237106	639	0
3	52321084	640	3
3	52405301	641	4
3	52489157	642	1
3	52573207	643	2
3	52657200	644	6
3	52741206	645	3
3	52825123	646	3
3	52909089	647	7
3	52993021	648	5
3	53076972	649	2
3	53161093	650	4
3	53245203	651	4
3	53329048	652	10
3	53412826	653	8
3	53496967	654	6
3	53580862	655	3
3	53664880	656	1
3	53748986	657	2
3	53833064	658	5
3	53916713	659	4
3	54000677	660	4
3	54084837	661	0
3	54168664	662	1
3	54252727	663	5
3	54336674	664	5
3	54420662	665	6
3	54504829	666	4
3	54588779	667	6
3	54672577	668	1
3	54756645	669	1
3	54840847	670	2
3	54924814	671	3
3	55008929	672	5
3	55092826	673	3
3	55176937	674	4
3	55260745	675	1
3	55344671	676	4
3	55428737	677	5
3	55512956	678	5
3	55596638	679	5
3	55680252	680	1
3	55764533	681	4
3	55848579	682	6
3	55932515	683	4
3	56016661	684	3
3	56100582	685	2
3	56184331	686	5
3	56268295	687	4
3	56352263	688	1
3	56436282	689	7
3	56520319	690	0
3	56604157	691	4
3	56688230	692	0
3	56772135	693	2
3	56855952	694	7
3	56940179	695	3
3	57024367	696	5
3	57108153	697	6
3	57192042	698	5
3	57276027	699	5
3	57359949	700	6
3	57443776	701	5
3	57527766	702	4
3	57611713	703	2
3	57695727	704	5
3	57779608	705	3
3	57863586	706	3
3	57947751	707	4
3	58031627	708	5
3	58115391	709	8
3	58199208	710	2
3	58283188	711	4
3	58367296	712	3
3	58451227	713	3
3	58535188	714	2
3	58619207	715	5
3	58703529	716	4
3	58787369	717	4
3	58871157	718	3
3	58955304	719	2
3	59039312	720	5
3	59123202	721	1
3	59206984	722	6
3	59290969	723	5
3	59374839	724	1
3	59458881	725	5
3	59543022	726	4
3	59626604	727	4
3	59710671	728	1
3	59794656	729	4
3	59878494	730	6
3	59962383	731	6
3	60046680	732	2
3	60130622	733	5
3	60214745	734	7
3	60298704	735	5
3	60382703	736	5
3	60466795	737	6
3	60550728	738	3
3	60634961	739	3
3	60718731	740	2
3	60802856	741	4
3	60886725	742	0
3	60970817	743	5
3	61055010	744	6
3	61138825	745	3
3	61222898	746	0
3	61306982	747	4
3	61391089	748	0
3	61475328	749	4
3	61559350	750	3
3	61643339	751	2
3	61727415	752	4
3	61811421	753	2
3	61895235	754	5
3	61979143	755	1
3	62063159	756	1
3	62147110	757	6
3	62231536	758	4
3	62315521	759	5
3	62399467	760	2
3	62483586	761	5
3	62567469	762	2
3	62651336	763	3
3	62735325	764	3
3	62819522	765	6
3	62903649	766	2
3	62987683	767	2
3	63071775	768	5
3	63155565	769	5
3	63239239	770	8
3	63323201	771	8
3	63407147	772	2
3	63491162	773	4
3	63575254	774	3
3	63658889	775	3
3	63742843	776	2
3	63826911	777	6
3	63910827	778	2
3	63994851	779	6
3	64078831	780	3
3	64162705	781	3
3	64246709	782	5
3	64330803	783	6
3	64414802	784	6
3	64498509	785	4
3	64582359	786	2
3	64666259	787	5
3	64750389	788	4
3	64834461	789	3
3	64918569	790	4
3	65002505	791	4
3	65086589	792	1
3	65170536	793	4
3	65254606	794	3
3	65338639	795	2
3	65422561	796	3
3	65506574	797	4
3	65590455	798	2
3	65674324	799	3
3	65758179	800	4
3	65842272	801	3
3	65925934	802	3
3	66009765	803	3
3	66093594	804	2
3	66177697	805	3
3	66261810	806	6
3	66345644	807	2
3	66429439	808	3
3	66513693	809	3
3	66597850	810	1
3	66681849	811	7
3	66766102	812	3
3	66849926	813	4
3	66933821	814	1
3	67017793	815	4
3	67101792	816	0
3	67185953	817	3
3	67269968	818	3
3	67353896	819	0
3	67438004	820	5
3	67521911	821	6
3	67606024	822	6
3	67690231	823	2
3	67774510	824	6
3	67858750	825	5
3	67942748	826	5
3	68026378	827	2
3	68110358	828	5
3	68194488	829	7
3	68278158	830	3
3	68362226	831	4
3	68446148	832	3
3	68529944	833	2
3	68614068	834	1
3	68697677	835	3
3	68781452	836	4
3	68865468	837	1
3	68949233	838	4
3	69033097	839	3
3	69117045	840	4
3	69200945	841	6
3	69284850	842	4
3	69368658	843	2
3	69452470	844	4
3	69536172	845	3
3	69620609	846	3
3	69704684	847	4
3	69788664	848	6
3	69872841	849	4
3	69956555	850	6
3	70040507	851	1
3	70124469	852	2
3	70208205	853	3
3	70292115	854	5
3	70376131	855	5
3	70459766	856	6
3	70543671	857	3
3	70627505	858	5
3	70711733	859	5
3	70796090	860	6
3	70879898	861	8
3	70963787	862	5
3	71047916	863	0
3	71132099	864	5
3	71215973	865	4
3	71299753	866	2
3	71383858	867	4
3	71467550	868	6
3	71551746	869	1
3	71635835	870	7
3	71719907	871	2
3	71803798	872	2
3	71887703	873	3
3	71971625	874	3
3	72055482	875	1
3	72139390	876	5
3	72223497	877	1
3	72307293	878	5
3	72391465	879	2
3	72475490	880	2
3	72559790	881	4
3	72643697	882	7
3	72727539	883	4
3	72811452	884	4
3	72895487	885	1
3	72979331	886	2
3	73063115	887	5
3	73147043	888	4
3	73230912	889	3
3	73314949	890	6
3	73399171	891	4
3	73483113	892	1
3	73567023	893	5
3	73651091	894	2
3	73735165	895	1
3	73819130	896	3
3	73903141	897	7
3	73987192	898	3
3	74071258	899	4
3	74155322	900	4
3	74239165	901	6
3	74323282	902	7
3	74407190	903	7
3	74491140	904	1
3	74575045	905	3
3	74659110	906	0
3	74743312	907	4
3	74827669	908	5
3	74911602	909	3
3	74995369	910	0
3	75079144	911	3
3	75163215	912	4
3	75246867	913	6
3	75331015	914	4
3	75415156	915	3
3	75499566	916	3
3	75583585	917	4
3	75667465	918	3
3	75751410	919	3
3	75835448	920	6
3	75919438	921	6
3	76003099	922	4
3	76086936	923	4
3	76170765	924	4
3	76254728	925	4
3	76338354	926	2
3	76422289	927	5
3	76506024	928	2
3	76590069	929	1
3	76674366	930	3
3	76758053	931	10
3	76841698	932	5
3	76925558	933	1
3	77009272	934	5
3	77093155	935	1
3	77177088	936	3
3	77261040	937	6
3	77345234	938	7
3	77429112	939	4
3	77513137	940	3
3	77596860	941	6
3	77681032	942	3
3	77764795	943	4
3	77848811	944	1
3	77932770	945	5
3	78016744	946	2
3	78100851	947	5
3	78185080	948	3
3	78268824	949	8
3	78352912	950	4
3	78436872	951	11
3	78520709	952	6
3	78604463	953	4
3	78688921	954	2
3	78772707	955	1
3	78856700	956	0
3	78940607	957	1
3	79024502	958	2
3	79108833	959	3
3	79192787	960	2
3	79276838	961	9
3	79360874	962	3
3	79444889	963	5
3	79528754	964	3
3	79612637	965	3
3	79696341	966	1
3	79779955	967	2
3	79863902	968	2
3	79947637	969	5
3	80031477	970	4
3	80115525	971	4
3	80199630	972	2
3	80283660	973	6
3	80367905	974	4
3	80451971	975	4
3	80535991	976	4
3	80620187	977	5
3	80703995	978	5
3	80787673	979	2
3	80871805	980	3
3	80955806	981	6
3	81039727	982	4
3	81123403	983	4
3	81207206	984	3
3	81291057	985	4
3	81375047	986	4
3	81459001	987	3
3	81542821	988	5
3	81626837	989	1
3	81710713	990	3
3	81794716	991	2
3	81878596	992	7
3	81962633	993	4
3	82046445	994	1
3	82130568	995	0
3	82214683	996	3
3	82298895	997	2
3	82382691	998	2
3	82466759	999	2
4	41994047	517	0.0029940510281156
4	42078087	518	0.0029880666676134
4	42162176	519	0.002982109703844
4	42246178	520	0.0029761904761905
4	42329877	521	0.00297032964189
4	42413862	522	0.0029644605210171
4	42497653	523	0.0029586249482973
4	42581636	524	0.0029527743215051
4	42665522	525	0.0029469777430235
4	42749521	526	0.0029411867484685
4	42833528	527	0.0029354184686067
4	42917416	528	0.0029296829676934
4	43001290	529	0.0029239799941868
4	43085320	530	0.00291826545236
4	43169362	531	0.0029125698440016
4	43253491	532	0.0029069031178119
4	43337479	533	0.0029012550657062
4	43421547	534	0.0028956322397973
4	43505306	535	0.0028900741690321
4	43588988	536	0.0028845472803003
4	43673072	537	0.002878985684885
4	43757075	538	0.0028734618444097
4	43840887	539	0.0028679787054001