version 2
run PerfectCC-3-20100909-17:04:50-2328
attr configname PerfectCC
attr datetime 20100909-17:04:50
attr delay 1000ms
attr experiment PerfectCC
attr inifile D:/Developement/Oversim2/multic/simulations/omnetpp.ini
attr iterationvars $delay=1000ms
attr iterationvars2 "$delay=1000ms, $repetition=0"
attr measurement $delay=1000ms
attr network oversim.underlay.simpleunderlay.SimpleUnderlayNetwork
attr processid 2328
attr repetition 0
attr replication #0
attr resultdir results
attr runnumber 3
attr seedset 3

vector 1  SimpleUnderlayNetwork.globalObserver.globalStatistics  incoming_bytes  ETV
vector 2  SimpleUnderlayNetwork.globalObserver.globalStatistics  drops  ETV
vector 3  SimpleUnderlayNetwork.globalObserver.globalStatistics  delayed_acks  ETV
vector 4  SimpleUnderlayNetwork.globalObserver.globalStatistics  timetotimeouts  ETV
vector 5  SimpleUnderlayNetwork.globalObserver.globalStatistics  rate  ETV
vector 6  SimpleUnderlayNetwork.globalObserver.globalStatistics  "GlobalNodeList: Number of nodes"  ETV
vector 7  SimpleUnderlayNetwork.globalObserver.globalStatistics  "GlobalNodeList: Number of bootstrapped malicious nodes"  ETV
1	41513051	520	94340
1	41596965	521	87927
1	41680519	522	89199
1	41764103	523	84853
1	41847988	524	98739
1	41931097	525	83528
1	42014251	526	81302
1	42097836	527	89888
1	42181233	528	86708
1	42264715	529	92061
1	42347966	530	87238
1	42431583	531	87397
1	42514929	532	84270
1	42598508	533	96354
1	42681584	534	84005
1	42764837	535	82786
1	42848584	536	95188
1	42931407	537	79235
1	43014769	538	94552
1	43097627	539	85542
1	43180516	540	83475
1	43263686	541	92803
1	43346563	542	81620
1	43429722	543	86761
1	43513075	544	89994
1	43596553	545	90206
1	43679862	546	84270
1	43763202	547	90895
1	43846759	548	90683
1	43930108	549	83475
1	44013484	550	87874
1	44096643	551	86708
1	44180337	552	96036
1	44263946	553	83051
1	44347132	554	83422
1	44430436	555	92061
1	44513747	556	87662
1	44596731	557	84217
1	44679996	558	89199
1	44763223	559	86496
1	44846700	560	88669
1	44930238	561	89305
1	45013640	562	89782
1	45096737	563	81991
1	45180364	564	93015
1	45263426	565	83369
1	45346817	566	91372
1	45430302	567	88139
1	45513493	568	80666
1	45597228	569	97096
1	45680235	570	82839
1	45763291	571	89199
1	45846309	572	88510
1	45929365	573	84005
1	46012793	574	87556
1	46096114	575	87715
1	46179674	576	84111
1	46263407	577	95294
1	46346572	578	86443
1	46430084	579	89199
1	46513730	580	91955
1	46597073	581	81355
1	46680259	582	88298
1	46763781	583	87821
1	46847160	584	87450
1	46930400	585	88192
1	47013721	586	93227
1	47096882	587	84853
1	47180372	588	82627
1	47263543	589	90577
1	47346913	590	85595
1	47430245	591	93174
1	47513284	592	82998
1	47596565	593	91425
1	47679810	594	82521
1	47762941	595	90471
1	47846321	596	84906
1	47929275	597	90895
1	48012322	598	85383
1	48095310	599	89146
1	48178715	600	83104
1	48261960	601	90259
1	48345154	602	83369
1	48428488	603	95824
1	48511877	604	83528
1	48595212	605	89623
1	48678720	606	85171
1	48762162	607	93969
1	48845200	608	82945
1	48928430	609	87079
1	49011669	610	87397
1	49095172	611	87503
1	49178806	612	90683
1	49262019	613	81514
1	49345516	614	99004
1	49429238	615	85542
1	49512434	616	80719
1	49596290	617	93810
1	49679996	618	91637
1	49763667	619	80719
1	49847440	620	91849
1	49930854	621	92644
1	50014236	622	84588
1	50097711	623	87026
1	50181014	624	87291
1	50264689	625	92485
1	50347661	626	79977
1	50430826	627	87927
1	50514183	628	92644
1	50597515	629	83369
1	50680885	630	93174
1	50764101	631	81938
1	50847377	632	95559
1	50930412	633	81726
1	51013532	634	84376
1	51096642	635	88987
1	51180022	636	89252
1	51263124	637	86125
1	51345865	638	85330
1	51428734	639	93598
1	51511563	640	84906
1	51594562	641	83316
1	51677840	642	89517
1	51761099	643	82203
1	51844671	644	90206
1	51927614	645	88987
1	52010605	646	91743
1	52093953	647	86125
1	52177234	648	85436
1	52261019	649	89570
1	52344352	650	83793
1	52427397	651	85436
1	52510898	652	91266
1	52593998	653	91425
1	52677350	654	83899
1	52760821	655	90736
1	52844509	656	86973
1	52928073	657	89358
1	53011600	658	83793
1	53094979	659	89941
1	53178621	660	92803
1	53261583	661	85012
1	53344716	662	84694
1	53427736	663	89729
1	53510850	664	83634
1	53594312	665	93969
1	53677462	666	81143
1	53760557	667	88404
1	53844231	668	87662
1	53927412	669	92856
1	54010276	670	80560
1	54093600	671	93280
1	54176781	672	83740
1	54259817	673	89994
1	54342805	674	82680
1	54425794	675	87662
1	54509010	676	89411
1	54592382	677	85383
1	54675434	678	89941
1	54758947	679	87344
1	54842334	680	91478
1	54925544	681	80984
1	55009005	682	95453
1	55092378	683	81885
1	55175370	684	84853
1	55259005	685	93280
1	55342094	686	91743
1	55425322	687	79553
1	55508598	688	94128
1	55592354	689	84429
1	55676125	690	90683
1	55759599	691	84429
1	55842931	692	92962
1	55926128	693	86761
1	56009383	694	87026
1	56092383	695	84217
1	56175441	696	88245
1	56259039	697	87450
1	56342353	698	85860
1	56425896	699	87450
1	56509691	700	97944
1	56593027	701	82945
1	56676493	702	92379
1	56759729	703	84588
1	56843439	704	86761
1	56927082	705	88457
1	57010047	706	85595
1	57093349	707	91743
1	57176497	708	83634
1	57259893	709	90100
1	57343195	710	87079
1	57426403	711	85436
1	57509979	712	92061
1	57593262	713	86443
1	57676544	714	86814
1	57760049	715	87768
1	57843539	716	89570
1	57927000	717	89623
1	58010444	718	86867
1	58093544	719	84482
1	58176876	720	92326
1	58259874	721	84906
1	58343058	722	83316
1	58426297	723	91690
1	58509420	724	87291
1	58592720	725	89305
1	58676093	726	83740
1	58759228	727	88351
1	58842465	728	86920
1	58926005	729	96036
1	59009040	730	82203
1	59092630	731	85224
1	59175887	732	90948
1	59259187	733	82627
1	59342356	734	93015
1	59425574	735	83740
1	59508718	736	93757
1	59592454	737	84376
1	59675809	738	91584
1	59758862	739	78387
1	59842276	740	95082
1	59925690	741	84111
1	60008937	742	88139
1	60092390	743	88086
1	60175754	744	93810
1	60259304	745	82998
1	60342677	746	89570
1	60426347	747	86655
1	60509544	748	90577
1	60593144	749	83581
1	60676585	750	93863
1	60759997	751	81514
1	60843687	752	92167
1	60926983	753	87026
1	61010325	754	89411
1	61093910	755	90948
1	61177382	756	82945
1	61260868	757	89305
1	61344179	758	87397
1	61427624	759	88351
1	61510627	760	87821
1	61594056	761	87132
1	61677289	762	90047
1	61761042	763	84270
1	61844555	764	94075
1	61927875	765	79500
1	62011048	766	97361
1	62094043	767	79447
1	62177641	768	92379
1	62260651	769	82256
1	62344003	770	88828
1	62427490	771	92962
1	62510794	772	82733
1	62594240	773	91637
1	62677573	774	87609
1	62761288	775	85383
1	62845296	776	86496
1	62929000	777	96195
1	63012811	778	86231
1	63096571	779	89835
1	63180145	780	83740
1	63263643	781	97202
1	63346792	782	80613
1	63430323	783	90418
1	63513771	784	85012
1	63597708	785	92379
1	63681502	786	84800
1	63764692	787	85383
1	63848331	788	95029
1	63931861	789	90789
1	64015274	790	82892
1	64098642	791	84111
1	64182076	792	90683
1	64265646	793	91107
1	64348904	794	83157
1	64431984	795	93545
1	64515290	796	87503
1	64598451	797	82362
1	64681443	798	88881
1	64764142	799	82256
1	64847320	800	87980
1	64930526	801	87291
1	65013759	802	90577
1	65097209	803	89252
1	65180461	804	86602
1	65264126	805	88722
1	65347792	806	89252
1	65431137	807	82362
1	65514827	808	98103
1	65597988	809	85118
1	65680913	810	82256
1	65764079	811	90047
1	65846694	812	80189
1	65929881	813	90153
1	66012600	814	88669
1	66095834	815	84588
1	66179178	816	94605
1	66262215	817	80348
1	66346016	818	94870
1	66429312	819	80507
1	66512467	820	88616
1	66595999	821	95029
1	66679191	822	81143
1	66762993	823	93439
1	66846425	824	83740
1	66929625	825	87079
1	67012616	826	88139
1	67095557	827	90948
1	67178613	828	82839
1	67261508	829	86178
1	67344788	830	80984
1	67427825	831	96089
1	67510708	832	84005
1	67593636	833	90630
1	67676896	834	84959
1	67760287	835	91107
1	67843905	836	82839
1	67927206	837	86072
1	68010512	838	91054
1	68093764	839	95453
1	68176635	840	82627
1	68259768	841	83740
1	68342953	842	86178
1	68426460	843	87185
1	68509507	844	88616
1	68592521	845	84217
1	68676091	846	99958
1	68759329	847	84959
1	68842271	848	81885
1	68925362	849	86867
1	69008502	850	87397
1	69092337	851	86443
1	69175278	852	89040
1	69258532	853	88192
1	69342225	854	93810
1	69425715	855	82415
1	69509151	856	88192
1	69592564	857	86814
1	69676124	858	89093
1	69759992	859	90630
1	69843530	860	92750
1	69927182	861	85489
1	70010964	862	90153
1	70094774	863	84535
1	70178401	864	87927
1	70261896	865	87450
1	70345094	866	93810
1	70428238	867	84482
1	70511252	868	86496
1	70594423	869	84429
1	70677839	870	90418
1	70760885	871	82733
1	70844020	872	90259
1	70927318	873	89411
1	71010645	874	83316
1	71094019	875	95188
1	71177054	876	84376
1	71260290	877	88298
1	71343431	878	82521
1	71426598	879	90577
1	71509877	880	87238
1	71592889	881	82362
1	71676051	882	93121
1	71759367	883	91690
1	71842330	884	82097
1	71925670	885	84111
1	72009035	886	95347
1	72092132	887	80242
1	72175737	888	93916
1	72258931	889	81090
1	72342121	890	91107
1	72425689	891	93757
1	72508784	892	84111
1	72592297	893	84641
1	72675873	894	91531
1	72759112	895	84164
1	72842547	896	94446
1	72925716	897	84588
1	73008887	898	83157
1	73092028	899	88351
1	73175216	900	89782
1	73258660	901	89358
1	73342052	902	84217
1	73425302	903	89623
1	73508801	904	91584
1	73591906	905	85171
1	73675034	906	84217
1	73758486	907	87927
1	73841933	908	87079
1	73925257	909	92697
1	74008544	910	85383
1	74092179	911	87662
1	74176021	912	91107
1	74259244	913	84111
1	74342740	914	93386
1	74426155	915	89411
1	74509176	916	82097
1	74592796	917	88245
1	74676500	918	87768
1	74759995	919	84535
1	74843392	920	93545
1	74926574	921	91531
1	75010283	922	85118
1	75093722	923	87026
1	75176927	924	85595
1	75260897	925	94711
1	75344138	926	82256
1	75427665	927	88934
1	75511092	928	87980
1	75594136	929	84959
1	75677617	930	97997
1	75760668	931	80507
1	75843921	932	86072
1	75927387	933	90895
1	76010403	934	83369
1	76093634	935	86867
1	76176656	936	87026
1	76260284	937	91849
1	76343461	938	88881
1	76426587	939	85648
1	76510151	940	94340
1	76593586	941	78652
1	76677107	942	87821
1	76760455	943	87450
1	76843876	944	93386
1	76927215	945	89570
1	77010185	946	80242
1	77093728	947	91107
1	77176879	948	90365
1	77260078	949	85542
1	77343205	950	88351
1	77426384	951	82415
1	77509762	952	92273
1	77592717	953	81249
1	77675797	954	88828
1	77759641	955	93969
1	77843070	956	85224
1	77926437	957	86549
1	78010323	958	94446
1	78093655	959	85913
1	78176879	960	83528
1	78260336	961	91478
1	78343637	962	84429
1	78426763	963	88245
1	78509734	964	85383
1	78593310	965	92697
1	78676313	966	86602
1	78759144	967	81832
1	78842507	968	94605
1	78925399	969	81355
1	79008407	970	93704
1	79091210	971	79818
1	79174259	972	87662
1	79257697	973	88616
1	79340824	974	84641
1	79424151	975	91266
1	79507743	976	95135
1	79590947	977	82150
1	79674555	978	86496
1	79757875	979	88828
1	79841319	980	87291
1	79924626	981	87238
1	80007891	982	88563
1	80091560	983	90736
1	80174690	984	83263
1	80258375	985	89146
1	80341939	986	92644
1	80425034	987	83475
1	80508591	988	93333
1	80591593	989	83581
1	80675088	990	87185
1	80758337	991	88086
1	80841535	992	84694
1	80924925	993	93386
1	81008025	994	82733
1	81091282	995	91478
1	81174582	996	84058
1	81257783	997	87450
1	81341361	998	89040
1	81425158	999	90577
2	41513051	520	36
2	41596965	521	42
2	41680519	522	50
2	41764103	523	63
2	41847988	524	36
2	41931097	525	13
2	42014251	526	31
2	42097836	527	80
2	42181233	528	30
2	42264715	529	31
2	42347966	530	66
2	42431583	531	32
2	42514929	532	67
2	42598508	533	23
2	42681584	534	39
2	42764837	535	31
2	42848584	536	49
2	42931407	537	60
2	43014769	538	53
2	43097627	539	28
2	43180516	540	49
2	43263686	541	35
2	43346563	542	27
2	43429722	543	69
2	43513075	544	29
2	43596553	545	60
2	43679862	546	44
2	43763202	547	40
2	43846759	548	46
2	43930108	549	29
2	44013484	550	31
2	44096643	551	65
2	44180337	552	69
2	44263946	553	67
2	44347132	554	33
2	44430436	555	48
2	44513747	556	54
2	44596731	557	38
2	44679996	558	35
2	44763223	559	69
2	44846700	560	75
2	44930238	561	47
2	45013640	562	45
2	45096737	563	35
2	45180364	564	60
2	45263426	565	62
2	45346817	566	18
2	45430302	567	46
2	45513493	568	76
2	45597228	569	40
2	45680235	570	36
2	45763291	571	55
2	45846309	572	23
2	45929365	573	68
2	46012793	574	32
2	46096114	575	18
2	46179674	576	71
2	46263407	577	43
2	46346572	578	39
2	46430084	579	19
2	46513730	580	78
2	46597073	581	25
2	46680259	582	28
2	46763781	583	52
2	46847160	584	43
2	46930400	585	70
2	47013721	586	31
2	47096882	587	53
2	47180372	588	41
2	47263543	589	58
2	47346913	590	78
2	47430245	591	65
2	47513284	592	20
2	47596565	593	13
2	47679810	594	32
2	47762941	595	64
2	47846321	596	47
2	47929275	597	59
2	48012322	598	48
2	48095310	599	13
2	48178715	600	32
2	48261960	601	39
2	48345154	602	53
2	48428488	603	56
2	48511877	604	42
2	48595212	605	34
2	48678720	606	74
2	48762162	607	15
2	48845200	608	37
2	48928430	609	42
2	49011669	610	60
2	49095172	611	61
2	49178806	612	41
2	49262019	613	43
2	49345516	614	22
2	49429238	615	32
2	49512434	616	83
2	49596290	617	52
2	49679996	618	42
2	49763667	619	71
2	49847440	620	36
2	49930854	621	47
2	50014236	622	26
2	50097711	623	74
2	50181014	624	85
2	50264689	625	37
2	50347661	626	35
2	50430826	627	39
2	50514183	628	44
2	50597515	629	45
2	50680885	630	68
2	50764101	631	55
2	50847377	632	44
2	50930412	633	29
2	51013532	634	53
2	51096642	635	71
2	51180022	636	33
2	51263124	637	27
2	51345865	638	77
2	51428734	639	57
2	51511563	640	39
2	51594562	641	39
2	51677840	642	36
2	51761099	643	45
2	51844671	644	54
2	51927614	645	51
2	52010605	646	34
2	52093953	647	69
2	52177234	648	71
2	52261019	649	82
2	52344352	650	41
2	52427397	651	27
2	52510898	652	27
2	52593998	653	37
2	52677350	654	53
2	52760821	655	71
2	52844509	656	28
2	52928073	657	24
2	53011600	658	50
2	53094979	659	92
2	53178621	660	56
2	53261583	661	30
2	53344716	662	18
2	53427736	663	57
2	53510850	664	32
2	53594312	665	70
2	53677462	666	37
2	53760557	667	57
2	53844231	668	52
2	53927412	669	45
2	54010276	670	33
2	54093600	671	93
2	54176781	672	58
2	54259817	673	36
2	54342805	674	35
2	54425794	675	53
2	54509010	676	45
2	54592382	677	30
2	54675434	678	33
2	54758947	679	63
2	54842334	680	34
2	54925544	681	51
2	55009005	682	54
2	55092378	683	57
2	55175370	684	25
2	55259005	685	52
2	55342094	686	30
2	55425322	687	28
2	55508598	688	44
2	55592354	689	43
2	55676125	690	63
2	55759599	691	57
2	55842931	692	17
2	55926128	693	21
2	56009383	694	72
2	56092383	695	44
2	56175441	696	35
2	56259039	697	33
2	56342353	698	51
2	56425896	699	21
2	56509691	700	76
2	56593027	701	50
2	56676493	702	30
2	56759729	703	30
2	56843439	704	76
2	56927082	705	43
2	57010047	706	29
2	57093349	707	20
2	57176497	708	86
2	57259893	709	39
2	57343195	710	36
2	57426403	711	43
2	57509979	712	51
2	57593262	713	16
2	57676544	714	27
2	57760049	715	76
2	57843539	716	65
2	57927000	717	39
2	58010444	718	42
2	58093544	719	54
2	58176876	720	36
2	58259874	721	29
2	58343058	722	65
2	58426297	723	33
2	58509420	724	51
2	58592720	725	27
2	58676093	726	60
2	58759228	727	47
2	58842465	728	16
2	58926005	729	56
2	59009040	730	44
2	59092630	731	55
2	59175887	732	37
2	59259187	733	29
2	59342356	734	50
2	59425574	735	54
2	59508718	736	37
2	59592454	737	62
2	59675809	738	32
2	59758862	739	18
2	59842276	740	70
2	59925690	741	61
2	60008937	742	22
2	60092390	743	35
2	60175754	744	47
2	60259304	745	52
2	60342677	746	33
2	60426347	747	37
2	60509544	748	47
2	60593144	749	42
2	60676585	750	32
2	60759997	751	48
2	60843687	752	34
2	60926983	753	27
2	61010325	754	43
2	61093910	755	50
2	61177382	756	50
2	61260868	757	39
2	61344179	758	45
2	61427624	759	27
2	61510627	760	42
2	61594056	761	56
2	61677289	762	48
2	61761042	763	66
2	61844555	764	88
2	61927875	765	30
2	62011048	766	37
2	62094043	767	33
2	62177641	768	34
2	62260651	769	42
2	62344003	770	73
2	62427490	771	27
2	62510794	772	43
2	62594240	773	48
2	62677573	774	40
2	62761288	775	34
2	62845296	776	70
2	62929000	777	40
2	63012811	778	18
2	63096571	779	61
2	63180145	780	62
2	63263643	781	33
2	63346792	782	14
2	63430323	783	29
2	63513771	784	71
2	63597708	785	82
2	63681502	786	46
2	63764692	787	26
2	63848331	788	31
2	63931861	789	70
2	64015274	790	59
2	64098642	791	35
2	64182076	792	26
2	64265646	793	63
2	64348904	794	74
2	64431984	795	35
2	64515290	796	141
2	64598451	797	30
2	64681443	798	43
2	64764142	799	22
2	64847320	800	66
2	64930526	801	58
2	65013759	802	38
2	65097209	803	31
2	65180461	804	26
2	65264126	805	6
2	65347792	806	37
2	65431137	807	107
2	65514827	808	66
2	65597988	809	76
2	65680913	810	63
2	65764079	811	45
2	65846694	812	63
2	65929881	813	13
2	66012600	814	44
2	66095834	815	72
2	66179178	816	69
2	66262215	817	33
2	66346016	818	47
2	66429312	819	35
2	66512467	820	56
2	66595999	821	46
2	66679191	822	79
2	66762993	823	42
2	66846425	824	47
2	66929625	825	75
2	67012616	826	43
2	67095557	827	49
2	67178613	828	38
2	67261508	829	47
2	67344788	830	62
2	67427825	831	68
2	67510708	832	43
2	67593636	833	44
2	67676896	834	44
2	67760287	835	22
2	67843905	836	42
2	67927206	837	68
2	68010512	838	50
2	68093764	839	38
2	68176635	840	49
2	68259768	841	38
2	68342953	842	37
2	68426460	843	54
2	68509507	844	19
2	68592521	845	62
2	68676091	846	85
2	68759329	847	65
2	68842271	848	29
2	68925362	849	32
2	69008502	850	24
2	69092337	851	61
2	69175278	852	35
2	69258532	853	33
2	69342225	854	34
2	69425715	855	42
2	69509151	856	35
2	69592564	857	17
2	69676124	858	40
2	69759992	859	37
2	69843530	860	60
2	69927182	861	60
2	70010964	862	47
2	70094774	863	57
2	70178401	864	61
2	70261896	865	75
2	70345094	866	50
2	70428238	867	44
2	70511252	868	51
2	70594423	869	42
2	70677839	870	47
2	70760885	871	55
2	70844020	872	27
2	70927318	873	65
2	71010645	874	62
2	71094019	875	36
2	71177054	876	50
2	71260290	877	63
2	71343431	878	46
2	71426598	879	28
2	71509877	880	58
2	71592889	881	62
2	71676051	882	32
2	71759367	883	34
2	71842330	884	66
2	71925670	885	30
2	72009035	886	39
2	72092132	887	32
2	72175737	888	60
2	72258931	889	31
2	72342121	890	6
2	72425689	891	48
2	72508784	892	35
2	72592297	893	35
2	72675873	894	33
2	72759112	895	61
2	72842547	896	64
2	72925716	897	52
2	73008887	898	54
2	73092028	899	40
2	73175216	900	20
2	73258660	901	52
2	73342052	902	71
2	73425302	903	75
2	73508801	904	19
2	73591906	905	29
2	73675034	906	37
2	73758486	907	41
2	73841933	908	50
2	73925257	909	50
2	74008544	910	23
2	74092179	911	52
2	74176021	912	32
2	74259244	913	48
2	74342740	914	35
2	74426155	915	58
2	74509176	916	34
2	74592796	917	36
2	74676500	918	55
2	74759995	919	57
2	74843392	920	34
2	74926574	921	45
2	75010283	922	50
2	75093722	923	46
2	75176927	924	55
2	75260897	925	78
2	75344138	926	35
2	75427665	927	26
2	75511092	928	61
2	75594136	929	21
2	75677617	930	45
2	75760668	931	96
2	75843921	932	48
2	75927387	933	25
2	76010403	934	22
2	76093634	935	10
2	76176656	936	58
2	76260284	937	68
2	76343461	938	56
2	76426587	939	48
2	76510151	940	31
2	76593586	941	41
2	76677107	942	89
2	76760455	943	64
2	76843876	944	26
2	76927215	945	18
2	77010185	946	25
2	77093728	947	53
2	77176879	948	52
2	77260078	949	45
2	77343205	950	61
2	77426384	951	25
2	77509762	952	17
2	77592717	953	66
2	77675797	954	49
2	77759641	955	54
2	77843070	956	80
2	77926437	957	42
2	78010323	958	40
2	78093655	959	56
2	78176879	960	36
2	78260336	961	51
2	78343637	962	31
2	78426763	963	23
2	78509734	964	61
2	78593310	965	55
2	78676313	966	40
2	78759144	967	33
2	78842507	968	41
2	78925399	969	71
2	79008407	970	43
2	79091210	971	22
2	79174259	972	37
2	79257697	973	63
2	79340824	974	44
2	79424151	975	30
2	79507743	976	30
2	79590947	977	46
2	79674555	978	64
2	79757875	979	20
2	79841319	980	43
2	79924626	981	72
2	80007891	982	41
2	80091560	983	25
2	80174690	984	36
2	80258375	985	41
2	80341939	986	45
2	80425034	987	48
2	80508591	988	34
2	80591593	989	52
2	80675088	990	44
2	80758337	991	52
2	80841535	992	22
2	80924925	993	80
2	81008025	994	68
2	81091282	995	37
2	81174582	996	49
2	81257783	997	53
2	81341361	998	86
2	81425158	999	54
3	41513051	520	0
3	41596965	521	9
3	41680519	522	2
3	41764103	523	5
3	41847988	524	0
3	41931097	525	6
3	42014251	526	4
3	42097836	527	9
3	42181233	528	6
3	42264715	529	7
3	42347966	530	6
3	42431583	531	5
3	42514929	532	5
3	42598508	533	7
3	42681584	534	5
3	42764837	535	1
3	42848584	536	4
3	42931407	537	2
3	43014769	538	8
3	43097627	539	1
3	43180516	540	3
3	43263686	541	4
3	43346563	542	6
3	43429722	543	8
3	43513075	544	4
3	43596553	545	7
3	43679862	546	5
3	43763202	547	5
3	43846759	548	3
3	43930108	549	5
3	44013484	550	8
3	44096643	551	4
3	44180337	552	3
3	44263946	553	5
3	44347132	554	6
3	44430436	555	4
3	44513747	556	7
3	44596731	557	9
3	44679996	558	5
3	44763223	559	4
3	44846700	560	8
3	44930238	561	8
3	45013640	562	4
3	45096737	563	3
3	45180364	564	3
3	45263426	565	5
3	45346817	566	4
3	45430302	567	3
3	45513493	568	4
3	45597228	569	6
3	45680235	570	6
3	45763291	571	4
3	45846309	572	4
3	45929365	573	2
3	46012793	574	4
3	46096114	575	3
3	46179674	576	4
3	46263407	577	5
3	46346572	578	5
3	46430084	579	2
3	46513730	580	4
3	46597073	581	2
3	46680259	582	6
3	46763781	583	9
3	46847160	584	3
3	46930400	585	2
3	47013721	586	4
3	47096882	587	4
3	47180372	588	4
3	47263543	589	2
3	47346913	590	3
3	47430245	591	5
3	47513284	592	3
3	47596565	593	3
3	47679810	594	7
3	47762941	595	7
3	47846321	596	6
3	47929275	597	2
3	48012322	598	3
3	48095310	599	4
3	48178715	600	6
3	48261960	601	3
3	48345154	602	5
3	48428488	603	5
3	48511877	604	10
3	48595212	605	8
3	48678720	606	3
3	48762162	607	3
3	48845200	608	6
3	48928430	609	6
3	49011669	610	1
3	49095172	611	5
3	49178806	612	3
3	49262019	613	3
3	49345516	614	5
3	49429238	615	3
3	49512434	616	5
3	49596290	617	4
3	49679996	618	2
3	49763667	619	5
3	49847440	620	3
3	49930854	621	5
3	50014236	622	6
3	50097711	623	4
3	50181014	624	5
3	50264689	625	4
3	50347661	626	5
3	50430826	627	3
3	50514183	628	4
3	50597515	629	5
3	50680885	630	5
3	50764101	631	6
3	50847377	632	2
3	50930412	633	2
3	51013532	634	2
3	51096642	635	2
3	51180022	636	7
3	51263124	637	0
3	51345865	638	5
3	51428734	639	3
3	51511563	640	2
3	51594562	641	7
3	51677840	642	7
3	51761099	643	4
3	51844671	644	3
3	51927614	645	3
3	52010605	646	2
3	52093953	647	7
3	52177234	648	4
3	52261019	649	4
3	52344352	650	4
3	52427397	651	2
3	52510898	652	4
3	52593998	653	2
3	52677350	654	6
3	52760821	655	5
3	52844509	656	1
3	52928073	657	9
3	53011600	658	7
3	53094979	659	3
3	53178621	660	2
3	53261583	661	3
3	53344716	662	3
3	53427736	663	2
3	53510850	664	9
3	53594312	665	3
3	53677462	666	8
3	53760557	667	2
3	53844231	668	4
3	53927412	669	7
3	54010276	670	4
3	54093600	671	1
3	54176781	672	8
3	54259817	673	4
3	54342805	674	7
3	54425794	675	6
3	54509010	676	4
3	54592382	677	5
3	54675434	678	3
3	54758947	679	2
3	54842334	680	5
3	54925544	681	6
3	55009005	682	8
3	55092378	683	4
3	55175370	684	5
3	55259005	685	6
3	55342094	686	2
3	55425322	687	5
3	55508598	688	2
3	55592354	689	5
3	55676125	690	6
3	55759599	691	4
3	55842931	692	3
3	55926128	693	2
3	56009383	694	1
3	56092383	695	5
3	56175441	696	9
3	56259039	697	4
3	56342353	698	8
3	56425896	699	4
3	56509691	700	0
3	56593027	701	5
3	56676493	702	2
3	56759729	703	4
3	56843439	704	3
3	56927082	705	5
3	57010047	706	3
3	57093349	707	2
3	57176497	708	3
3	57259893	709	7
3	57343195	710	2
3	57426403	711	3
3	57509979	712	5
3	57593262	713	3
3	57676544	714	5
3	57760049	715	3
3	57843539	716	6
3	57927000	717	8
3	58010444	718	3
3	58093544	719	2
3	58176876	720	6
3	58259874	721	4
3	58343058	722	5
3	58426297	723	10
3	58509420	724	2
3	58592720	725	3
3	58676093	726	3
3	58759228	727	1
3	58842465	728	3
3	58926005	729	5
3	59009040	730	8
3	59092630	731	1
3	59175887	732	6
3	59259187	733	3
3	59342356	734	10
3	59425574	735	8
3	59508718	736	4
3	59592454	737	3
3	59675809	738	7
3	59758862	739	2
3	59842276	740	2
3	59925690	741	2
3	60008937	742	1
3	60092390	743	6
3	60175754	744	6
3	60259304	745	7
3	60342677	746	4
3	60426347	747	4
3	60509544	748	12
3	60593144	749	6
3	60676585	750	7
3	60759997	751	2
3	60843687	752	4
3	60926983	753	7
3	61010325	754	6
3	61093910	755	4
3	61177382	756	5
3	61260868	757	4
3	61344179	758	3
3	61427624	759	3
3	61510627	760	8
3	61594056	761	4
3	61677289	762	2
3	61761042	763	3
3	61844555	764	7
3	61927875	765	6
3	62011048	766	5
3	62094043	767	8
3	62177641	768	3
3	62260651	769	2
3	62344003	770	4
3	62427490	771	5
3	62510794	772	1
3	62594240	773	3
3	62677573	774	5
3	62761288	775	9
3	62845296	776	3
3	62929000	777	5
3	63012811	778	8
3	63096571	779	4
3	63180145	780	6
3	63263643	781	0
3	63346792	782	7
3	63430323	783	3
3	63513771	784	1
3	63597708	785	4
3	63681502	786	3
3	63764692	787	2
3	63848331	788	6
3	63931861	789	5
3	64015274	790	4
3	64098642	791	4
3	64182076	792	6
3	64265646	793	4
3	64348904	794	3
3	64431984	795	1
3	64515290	796	1
3	64598451	797	3
3	64681443	798	10
3	64764142	799	5
3	64847320	800	3
3	64930526	801	6
3	65013759	802	9
3	65097209	803	8
3	65180461	804	1
3	65264126	805	4
3	65347792	806	7
3	65431137	807	5
3	65514827	808	4
3	65597988	809	8
3	65680913	810	6
3	65764079	811	9
3	65846694	812	1
3	65929881	813	7
3	66012600	814	6
3	66095834	815	6
3	66179178	816	5
3	66262215	817	0
3	66346016	818	6
3	66429312	819	5
3	66512467	820	4
3	66595999	821	1
3	66679191	822	2
3	66762993	823	5
3	66846425	824	3
3	66929625	825	4
3	67012616	826	5
3	67095557	827	3
3	67178613	828	9
3	67261508	829	6
3	67344788	830	5
3	67427825	831	8
3	67510708	832	5
3	67593636	833	5
3	67676896	834	3
3	67760287	835	7
3	67843905	836	6
3	67927206	837	7
3	68010512	838	5
3	68093764	839	4
3	68176635	840	4
3	68259768	841	5
3	68342953	842	3
3	68426460	843	6
3	68509507	844	5
3	68592521	845	3
3	68676091	846	7
3	68759329	847	0
3	68842271	848	5
3	68925362	849	3
3	69008502	850	2
3	69092337	851	2
3	69175278	852	4
3	69258532	853	6
3	69342225	854	4
3	69425715	855	4
3	69509151	856	7
3	69592564	857	3
3	69676124	858	2
3	69759992	859	0
3	69843530	860	3
3	69927182	861	2
3	70010964	862	1
3	70094774	863	7
3	70178401	864	3
3	70261896	865	6
3	70345094	866	4
3	70428238	867	1
3	70511252	868	4
3	70594423	869	1
3	70677839	870	5
3	70760885	871	3
3	70844020	872	2
3	70927318	873	4
3	71010645	874	3
3	71094019	875	5
3	71177054	876	8
3	71260290	877	4
3	71343431	878	3
3	71426598	879	4
3	71509877	880	4
3	71592889	881	5
3	71676051	882	0
3	71759367	883	9
3	71842330	884	6
3	71925670	885	6
3	72009035	886	6
3	72092132	887	2
3	72175737	888	2
3	72258931	889	2
3	72342121	890	4
3	72425689	891	3
3	72508784	892	5
3	72592297	893	7
3	72675873	894	5
3	72759112	895	3
3	72842547	896	3
3	72925716	897	4
3	73008887	898	3
3	73092028	899	4
3	73175216	900	2
3	73258660	901	4
3	73342052	902	3
3	73425302	903	6
3	73508801	904	6
3	73591906	905	6
3	73675034	906	5
3	73758486	907	7
3	73841933	908	2
3	73925257	909	5
3	74008544	910	2
3	74092179	911	7
3	74176021	912	3
3	74259244	913	1
3	74342740	914	5
3	74426155	915	9
3	74509176	916	5
3	74592796	917	10
3	74676500	918	8
3	74759995	919	5
3	74843392	920	9
3	74926574	921	6
3	75010283	922	4
3	75093722	923	4
3	75176927	924	4
3	75260897	925	3
3	75344138	926	5
3	75427665	927	5
3	75511092	928	2
3	75594136	929	3
3	75677617	930	4
3	75760668	931	2
3	75843921	932	3
3	75927387	933	5
3	76010403	934	5
3	76093634	935	6
3	76176656	936	4
3	76260284	937	4
3	76343461	938	6
3	76426587	939	4
3	76510151	940	3
3	76593586	941	5
3	76677107	942	4
3	76760455	943	2
3	76843876	944	5
3	76927215	945	4
3	77010185	946	4
3	77093728	947	5
3	77176879	948	4
3	77260078	949	2
3	77343205	950	0
3	77426384	951	4
3	77509762	952	5
3	77592717	953	5
3	77675797	954	1
3	77759641	955	7
3	77843070	956	7
3	77926437	957	8
3	78010323	958	7
3	78093655	959	5
3	78176879	960	3
3	78260336	961	4
3	78343637	962	6
3	78426763	963	4
3	78509734	964	11
3	78593310	965	5
3	78676313	966	5
3	78759144	967	6
3	78842507	968	9
3	78925399	969	4
3	79008407	970	5
3	79091210	971	4
3	79174259	972	3
3	79257697	973	5
3	79340824	974	6
3	79424151	975	4
3	79507743	976	4
3	79590947	977	5
3	79674555	978	3
3	79757875	979	4
3	79841319	980	4
3	79924626	981	7
3	80007891	982	6
3	80091560	983	3
3	80174690	984	5
3	80258375	985	7
3	80341939	986	5
3	80425034	987	1
3	80508591	988	7
3	80591593	989	2
3	80675088	990	3
3	80758337	991	5
3	80841535	992	5
3	80924925	993	6
3	81008025	994	5
3	81091282	995	4
3	81174582	996	4
3	81257783	997	2
3	81341361	998	3
3	81425158	999	5
4	41513051	520	0.2485766546233
4	41596965	521	0.24806742787091
4	41680519	522	0.24760525074654
4	41764103	523	0.24714572533038
4	41847988	524	0.24661640272282
4	41931097	525	0.24614411067764
4	42014251	526	0.24566294342937
4	42097836	527	0.24518800371958
4	42181233	528	0.24468299361082
4	42264715	529	0.24417513615084
4	42347966	530	0.2437393009086
4	42431583	531	0.24327178984575
4	42514929	532	0.24280319604649
4	42598508	533	0.24231427358801
4	42681584	534	0.24183805121457