version 2
run PerfectCC-1-20100909-16:35:34-3228
attr configname PerfectCC
attr datetime 20100909-16:35:34
attr delay 200ms
attr experiment PerfectCC
attr inifile D:/Developement/Oversim2/multic/simulations/omnetpp.ini
attr iterationvars $delay=200ms
attr iterationvars2 "$delay=200ms, $repetition=0"
attr measurement $delay=200ms
attr network oversim.underlay.simpleunderlay.SimpleUnderlayNetwork
attr processid 3228
attr repetition 0
attr replication #0
attr resultdir results
attr runnumber 1
attr seedset 1

vector 1  SimpleUnderlayNetwork.globalObserver.globalStatistics  incoming_bytes  ETV
vector 2  SimpleUnderlayNetwork.globalObserver.globalStatistics  drops  ETV
vector 3  SimpleUnderlayNetwork.globalObserver.globalStatistics  delayed_acks  ETV
vector 4  SimpleUnderlayNetwork.globalObserver.globalStatistics  timetotimeouts  ETV
vector 5  SimpleUnderlayNetwork.globalObserver.globalStatistics  rate  ETV
vector 6  SimpleUnderlayNetwork.globalObserver.globalStatistics  "GlobalNodeList: Number of nodes"  ETV
vector 7  SimpleUnderlayNetwork.globalObserver.globalStatistics  "GlobalNodeList: Number of bootstrapped malicious nodes"  ETV
1	41988926	520	88722
1	42072593	521	88722
1	42156499	522	89676
1	42240726	523	90100
1	42324555	524	88669
1	42408568	525	90047
1	42492645	526	89464
1	42576398	527	88881
1	42660350	528	89782
1	42744366	529	89252
1	42828069	530	88722
1	42911987	531	89729
1	42995900	532	89093
1	43079868	533	89517
1	43163825	534	89464
1	43247822	535	89570
1	43331667	536	88934
1	43415679	537	90047
1	43499843	538	89782
1	43583912	539	89517
1	43667875	540	89305
1	43751553	541	88616
1	43835318	542	89411
1	43919062	543	88775
1	44002932	544	89305
1	44086510	545	88351
1	44170596	546	90365
1	44254487	547	88775
1	44338294	548	89305
1	44422111	549	89040
1	44505687	550	88298
1	44589419	551	89305
1	44673058	552	88457
1	44756699	553	89146
1	44840386	554	88669
1	44924026	555	88828
1	45008089	556	90047
1	45091747	557	87980
1	45175717	558	90259
1	45259586	559	88510
1	45343237	560	89093
1	45427129	561	89411
1	45510800	562	88404
1	45594319	563	88775
1	45678222	564	89570
1	45762039	565	88934
1	45845880	566	89411
1	45929849	567	89411
1	46013513	568	88457
1	46097406	569	89729
1	46181636	570	90047
1	46265751	571	89888
1	46349577	572	88616
1	46433097	573	88563
1	46517137	574	90153
1	46600754	575	87768
1	46684425	576	89570
1	46768388	577	89517
1	46852063	578	88510
1	46935850	579	89464
1	47019957	580	89835
1	47103879	581	89040
1	47187710	582	89305
1	47271310	583	88404
1	47354956	584	88934
1	47438738	585	88987
1	47522495	586	89146
1	47606306	587	89093
1	47690021	588	88934
1	47774024	589	89835
1	47857854	590	88669
1	47941588	591	89252
1	48025545	592	89570
1	48109214	593	88457
1	48192971	594	89305
1	48277120	595	90100
1	48360657	596	87556
1	48444533	597	90206
1	48528632	598	89358
1	48612569	599	89464
1	48696641	600	89888
1	48780598	601	88987
1	48864081	602	88139
1	48947895	603	89729
1	49031927	604	89623
1	49115626	605	88457
1	49199265	606	89040
1	49283167	607	89411
1	49366955	608	88775
1	49450738	609	89411
1	49534543	610	88881
1	49618248	611	88934
1	49701907	612	88775
1	49785706	613	89305
1	49869463	614	88828
1	49953508	615	90153
1	50037509	616	89305
1	50121349	617	89040
1	50205135	618	89093
1	50288975	619	89305
1	50372880	620	89411
1	50456673	621	88934
1	50540539	622	89464
1	50624192	623	88245
1	50708022	624	89782
1	50792027	625	89411
1	50875606	626	88139
1	50959166	627	88881
1	51042946	628	89146
1	51126759	629	89040
1	51210455	630	89093
1	51294317	631	89146
1	51377800	632	87927
1	51461448	633	89464
1	51545296	634	89093
1	51628926	635	88351
1	51712656	636	89358
1	51796533	637	89199
1	51880428	638	89358
1	51964134	639	88563
1	52048085	640	89994
1	52132102	641	89358
1	52216057	642	89464
1	52300167	643	89994
1	52384001	644	88669
1	52467769	645	89146
1	52551697	646	89623
1	52635461	647	88722
1	52719486	648	90100
1	52803429	649	88987
1	52887328	650	89464
1	52971483	651	90100
1	53055570	652	89570
1	53139439	653	89146
1	53223266	654	89146
1	53307091	655	89146
1	53390893	656	89093
1	53474992	657	89994
1	53558994	658	89252
1	53642926	659	89464
1	53726609	660	88404
1	53810644	661	90259
1	53894403	662	88351
1	53978361	663	90100
1	54062545	664	89835
1	54146496	665	89146
1	54230382	666	89305
1	54314577	667	90418
1	54398609	668	89093
1	54482698	669	89888
1	54566509	670	88563
1	54650503	671	89994
1	54734470	672	89199
1	54818325	673	89358
1	54902111	674	88934
1	54985890	675	89093
1	55069789	676	89411
1	55153948	677	90206
1	55238069	678	89464
1	55322006	679	89411
1	55406036	680	89782
1	55489835	681	88669
1	55573680	682	89517
1	55657580	683	89199
1	55741595	684	89729
1	55825208	685	88086
1	55908858	686	89146
1	55992594	687	88616
1	56076456	688	89782
1	56160383	689	89146
1	56243801	690	87821
1	56327586	691	89623
1	56411121	692	87821
1	56494804	693	89411
1	56578768	694	89676
1	56662700	695	89199
1	56746401	696	88722
1	56830359	697	89676
1	56914012	698	88351
1	56997899	699	89623
1	57081833	700	89358
1	57165896	701	89729
1	57249748	702	89146
1	57333625	703	89199
1	57417079	704	87874
1	57500811	705	89570
1	57584607	706	88828
1	57668423	707	89358
1	57752281	708	89199
1	57836164	709	89252
1	57919985	710	88934
1	58003956	711	89888
1	58087982	712	89623
1	58171845	713	88934
1	58255663	714	89199
1	58339614	715	89570
1	58423444	716	88881
1	58507400	717	89729
1	58591513	718	89888
1	58675588	719	89570
1	58759538	720	89305
1	58843413	721	89199
1	58927092	722	88563
1	59011053	723	89888
1	59095018	724	89411
1	59178926	725	89305
1	59262880	726	89252
1	59346687	727	89252
1	59430605	728	89252
1	59514381	729	89093
1	59598396	730	89729
1	59682217	731	88722
1	59766062	732	89517
1	59850040	733	89411
1	59933437	734	87609
1	60017084	735	89358
1	60100857	736	88934
1	60184655	737	89199
1	60268413	738	89040
1	60352240	739	89252
1	60435882	740	88457
1	60519656	741	89411
1	60603597	742	89252
1	60687357	743	88775
1	60771343	744	89888
1	60855311	745	89252
1	60939044	746	88775
1	61022971	747	89782
1	61107083	748	89888
1	61190943	749	88775
1	61274781	750	89517
1	61358903	751	89941
1	61442828	752	88987
1	61526504	753	88881
1	61610719	754	90471
1	61694603	755	88616
1	61778446	756	89517
1	61862362	757	89358
1	61946149	758	88881
1	62030157	759	89782
1	62114114	760	89305
1	62197911	761	89146
1	62281788	762	89358
1	62365600	763	88987
1	62449189	764	88457
1	62533016	765	89358
1	62616900	766	89305
1	62700826	767	89358
1	62784800	768	89517
1	62868752	769	89411
1	62952756	770	89570
1	63036560	771	88828
1	63120427	772	89411
1	63204035	773	88351
1	63287948	774	89888
1	63372081	775	89941
1	63455860	776	88510
1	63539625	777	89199
1	63623675	778	89835
1	63707553	779	88987
1	63791249	780	88881
1	63875195	781	89623
1	63958900	782	88616
1	64042724	783	89464
1	64126725	784	89623
1	64210698	785	89305
1	64294473	786	88828
1	64378251	787	89252
1	64461837	788	88351
1	64545704	789	89729
1	64629454	790	88563
1	64713299	791	89623
1	64797202	792	89040
1	64880900	793	88722
1	64964640	794	89199
1	65048622	795	89570
1	65132633	796	89623
1	65216723	797	89676
1	65300509	798	88722
1	65384491	799	89941
1	65468217	800	88351
1	65551790	801	88828
1	65635860	802	90206
1	65719963	803	89517
1	65803760	804	89146
1	65887821	805	89729
1	65971533	806	88351
1	66055571	807	90365
1	66139543	808	89040
1	66223345	809	89093
1	66306947	810	88510
1	66390783	811	89570
1	66474595	812	88987
1	66558507	813	89358
1	66642560	814	89676
1	66726398	815	89040
1	66810129	816	88881
1	66894058	817	89729
1	66977753	818	88404
1	67061525	819	89464
1	67145365	820	89040
1	67229037	821	88722
1	67313024	822	89994
1	67396960	823	89093
1	67480681	824	88881
1	67564669	825	89782
1	67648388	826	88351
1	67732142	827	89464
1	67816093	828	89464
1	67900120	829	89676
1	67983970	830	88881
1	68067756	831	89199
1	68151618	832	89358
1	68235463	833	89146
1	68319149	834	88563
1	68403047	835	89782
1	68486964	836	89305
1	68571029	837	89729
1	68655040	838	89411
1	68738798	839	88881
1	68822591	840	89199
1	68906632	841	89835
1	68990632	842	89464
1	69074412	843	88828
1	69158257	844	89411
1	69241933	845	88510
1	69325634	846	89146
1	69409533	847	89517
1	69493459	848	89305
1	69577194	849	88722
1	69661196	850	90100
1	69745102	851	88775
1	69829001	852	89729
1	69913014	853	89517
1	69996783	854	88987
1	70080606	855	89146
1	70164520	856	89358
1	70247936	857	87556
1	70331591	858	89623
1	70415580	859	89358
1	70499463	860	89252
1	70583364	861	89305
1	70667271	862	89358
1	70751111	863	89146
1	70834864	864	88934
1	70918695	865	89464
1	71002629	866	89252
1	71086479	867	89093
1	71170290	868	89146
1	71254318	869	89835
1	71338436	870	89676
1	71422419	871	89464
1	71506312	872	89093
1	71590119	873	89305
1	71674039	874	89411
1	71758102	875	89623
1	71841913	876	88934
1	71925943	877	89994
1	72009971	878	89411
1	72093979	879	89570
1	72178119	880	90100
1	72262160	881	89358
1	72345867	882	88722
1	72429603	883	88987
1	72513452	884	89358
1	72597426	885	89411
1	72681440	886	89676
1	72765414	887	89358
1	72849115	888	88563
1	72932968	889	89676
1	73016812	890	88987
1	73100493	891	88722
1	73184269	892	89305
1	73268123	893	89146
1	73352181	894	89941
1	73436458	895	90153
1	73520316	896	88775
1	73604305	897	89888
1	73688224	898	89040
1	73772002	899	89199
1	73856069	900	89835
1	73939887	901	88722
1	74023638	902	89199
1	74107517	903	89252
1	74191318	904	89146
1	74275076	905	88722
1	74358739	906	88881
1	74442738	907	89835
1	74526553	908	88722
1	74610406	909	89729
1	74694453	910	89570
1	74778149	911	88510
1	74861973	912	89411
1	74946010	913	89835
1	75029727	914	88404
1	75113510	915	89676
1	75197464	916	89040
1	75281104	917	88669
1	75364955	918	89517
1	75448802	919	89093
1	75532794	920	89676
1	75616649	921	88881
1	75700519	922	89464
1	75784481	923	89517
1	75868465	924	89358
1	75952408	925	89517
1	76036425	926	89623
1	76120540	927	89994
1	76204455	928	89040
1	76288080	929	88563
1	76371888	930	89411
1	76455786	931	89199
1	76539266	932	87980
1	76623043	933	89729
1	76707175	934	89888
1	76790944	935	88351
1	76874638	936	89305
1	76958644	937	89676
1	77042455	938	88828
1	77126326	939	89517
1	77210260	940	89411
1	77294285	941	89782
1	77378309	942	89464
1	77462114	943	88828
1	77545673	944	88563
1	77629569	945	89676
1	77713432	946	88881
1	77797176	947	89093
1	77881152	948	89517
1	77965090	949	89305
1	78049068	950	89517
1	78133091	951	89517
1	78217102	952	89676
1	78300872	953	88669
1	78384725	954	89835
1	78468825	955	89464
1	78552616	956	88828
1	78636515	957	89729
1	78720500	958	89358
1	78804501	959	89570
1	78888468	960	89252
1	78972515	961	90047
1	79056441	962	89040
1	79140380	963	89464
1	79224486	964	89782
1	79308317	965	89040
1	79392265	966	89570
1	79476436	967	89994
1	79560403	968	89199
1	79644559	969	90206
1	79728584	970	89252
1	79812627	971	89835
1	79896554	972	89040
1	79980577	973	89835
1	80064480	974	89146
1	80148398	975	89464
1	80232324	976	89411
1	80316194	977	89199
1	80400085	978	89305
1	80483875	979	88987
1	80567777	980	89570
1	80651892	981	89729
1	80736007	982	89835
1	80819857	983	88828
1	80903524	984	88828
1	80987539	985	89994
1	81071336	986	88510
1	81155396	987	90259
1	81239473	988	89464
1	81323224	989	88722
1	81407106	990	89570
1	81491270	991	90100
1	81575169	992	88881
1	81659064	993	89464
1	81742974	994	89305
1	81826812	995	89305
1	81910896	996	89835
1	81994600	997	88351
1	82078413	998	89570
1	82162478	999	89729
2	41988926	520	3
2	42072593	521	12
2	42156499	522	17
2	42240726	523	12
2	42324555	524	10
2	42408568	525	9
2	42492645	526	12
2	42576398	527	6
2	42660350	528	15
2	42744366	529	13
2	42828069	530	7
2	42911987	531	12
2	42995900	532	16
2	43079868	533	19
2	43163825	534	5
2	43247822	535	6
2	43331667	536	12
2	43415679	537	9
2	43499843	538	5
2	43583912	539	16
2	43667875	540	22
2	43751553	541	4
2	43835318	542	8
2	43919062	543	12
2	44002932	544	13
2	44086510	545	16
2	44170596	546	12
2	44254487	547	10
2	44338294	548	11
2	44422111	549	18
2	44505687	550	15
2	44589419	551	14
2	44673058	552	9
2	44756699	553	7
2	44840386	554	10
2	44924026	555	13
2	45008089	556	18
2	45091747	557	16
2	45175717	558	20
2	45259586	559	13
2	45343237	560	9
2	45427129	561	12
2	45510800	562	11
2	45594319	563	12
2	45678222	564	8
2	45762039	565	12
2	45845880	566	11
2	45929849	567	5
2	46013513	568	21
2	46097406	569	6
2	46181636	570	8
2	46265751	571	12
2	46349577	572	13
2	46433097	573	11
2	46517137	574	12
2	46600754	575	11
2	46684425	576	6
2	46768388	577	3
2	46852063	578	12
2	46935850	579	12
2	47019957	580	6
2	47103879	581	20
2	47187710	582	8
2	47271310	583	13
2	47354956	584	16
2	47438738	585	7
2	47522495	586	14
2	47606306	587	9
2	47690021	588	7
2	47774024	589	9
2	47857854	590	23
2	47941588	591	2
2	48025545	592	15
2	48109214	593	12
2	48192971	594	6
2	48277120	595	14
2	48360657	596	23
2	48444533	597	12
2	48528632	598	14
2	48612569	599	10
2	48696641	600	9
2	48780598	601	17
2	48864081	602	12
2	48947895	603	9
2	49031927	604	4
2	49115626	605	13
2	49199265	606	10
2	49283167	607	14
2	49366955	608	11
2	49450738	609	10
2	49534543	610	8
2	49618248	611	16
2	49701907	612	10
2	49785706	613	7
2	49869463	614	9
2	49953508	615	8
2	50037509	616	8
2	50121349	617	5
2	50205135	618	9
2	50288975	619	11
2	50372880	620	10
2	50456673	621	11
2	50540539	622	13
2	50624192	623	11
2	50708022	624	10
2	50792027	625	12
2	50875606	626	17
2	50959166	627	6
2	51042946	628	12
2	51126759	629	9
2	51210455	630	13
2	51294317	631	18
2	51377800	632	15
2	51461448	633	9
2	51545296	634	7
2	51628926	635	23
2	51712656	636	17
2	51796533	637	1
2	51880428	638	18
2	51964134	639	14
2	52048085	640	5
2	52132102	641	7
2	52216057	642	8
2	52300167	643	15
2	52384001	644	8
2	52467769	645	11
2	52551697	646	11
2	52635461	647	6
2	52719486	648	6
2	52803429	649	9
2	52887328	650	11
2	52971483	651	9
2	53055570	652	6
2	53139439	653	9
2	53223266	654	8
2	53307091	655	16
2	53390893	656	8
2	53474992	657	13
2	53558994	658	16
2	53642926	659	13
2	53726609	660	13
2	53810644	661	9
2	53894403	662	15
2	53978361	663	10
2	54062545	664	2
2	54146496	665	14
2	54230382	666	11
2	54314577	667	11
2	54398609	668	8
2	54482698	669	28
2	54566509	670	11
2	54650503	671	11
2	54734470	672	13
2	54818325	673	6
2	54902111	674	10
2	54985890	675	17
2	55069789	676	4
2	55153948	677	9
2	55238069	678	7
2	55322006	679	7
2	55406036	680	10
2	55489835	681	15
2	55573680	682	9
2	55657580	683	12
2	55741595	684	20
2	55825208	685	11
2	55908858	686	16
2	55992594	687	15
2	56076456	688	6
2	56160383	689	18
2	56243801	690	16
2	56327586	691	21
2	56411121	692	9
2	56494804	693	14
2	56578768	694	6
2	56662700	695	16
2	56746401	696	17
2	56830359	697	18
2	56914012	698	11
2	56997899	699	12
2	57081833	700	10
2	57165896	701	5
2	57249748	702	17
2	57333625	703	18
2	57417079	704	10
2	57500811	705	13
2	57584607	706	11
2	57668423	707	10
2	57752281	708	6
2	57836164	709	11
2	57919985	710	9
2	58003956	711	9
2	58087982	712	10
2	58171845	713	17
2	58255663	714	7
2	58339614	715	9
2	58423444	716	19
2	58507400	717	10
2	58591513	718	8
2	58675588	719	14
2	58759538	720	6
2	58843413	721	13
2	58927092	722	12
2	59011053	723	12
2	59095018	724	5
2	59178926	725	8
2	59262880	726	15
2	59346687	727	14
2	59430605	728	11
2	59514381	729	12
2	59598396	730	8
2	59682217	731	14
2	59766062	732	11
2	59850040	733	19
2	59933437	734	16
2	60017084	735	12
2	60100857	736	12
2	60184655	737	8
2	60268413	738	9
2	60352240	739	8
2	60435882	740	18
2	60519656	741	8
2	60603597	742	22
2	60687357	743	16
2	60771343	744	7
2	60855311	745	15
2	60939044	746	8
2	61022971	747	6
2	61107083	748	10
2	61190943	749	7
2	61274781	750	5
2	61358903	751	7
2	61442828	752	11
2	61526504	753	17
2	61610719	754	14
2	61694603	755	5
2	61778446	756	11
2	61862362	757	9
2	61946149	758	10
2	62030157	759	9
2	62114114	760	15
2	62197911	761	3
2	62281788	762	14
2	62365600	763	16
2	62449189	764	15
2	62533016	765	14
2	62616900	766	13
2	62700826	767	4
2	62784800	768	17
2	62868752	769	7
2	62952756	770	16
2	63036560	771	18
2	63120427	772	11
2	63204035	773	8
2	63287948	774	3
2	63372081	775	9
2	63455860	776	13
2	63539625	777	19
2	63623675	778	7
2	63707553	779	8
2	63791249	780	13
2	63875195	781	11
2	63958900	782	11
2	64042724	783	7
2	64126725	784	6
2	64210698	785	21
2	64294473	786	8
2	64378251	787	9
2	64461837	788	15
2	64545704	789	9
2	64629454	790	13
2	64713299	791	19
2	64797202	792	14
2	64880900	793	15
2	64964640	794	9
2	65048622	795	6
2	65132633	796	13
2	65216723	797	14
2	65300509	798	8
2	65384491	799	11
2	65468217	800	14
2	65551790	801	9
2	65635860	802	6
2	65719963	803	8
2	65803760	804	9
2	65887821	805	10
2	65971533	806	16
2	66055571	807	8
2	66139543	808	8
2	66223345	809	18
2	66306947	810	9
2	66390783	811	13
2	66474595	812	4
2	66558507	813	14
2	66642560	814	6
2	66726398	815	24
2	66810129	816	4
2	66894058	817	11
2	66977753	818	9
2	67061525	819	10
2	67145365	820	13
2	67229037	821	4
2	67313024	822	10
2	67396960	823	7
2	67480681	824	11
2	67564669	825	20
2	67648388	826	13
2	67732142	827	7
2	67816093	828	4
2	67900120	829	9
2	67983970	830	10
2	68067756	831	12
2	68151618	832	10
2	68235463	833	12
2	68319149	834	18
2	68403047	835	2
2	68486964	836	11
2	68571029	837	6
2	68655040	838	9
2	68738798	839	9
2	68822591	840	14
2	68906632	841	3
2	68990632	842	14
2	69074412	843	6
2	69158257	844	15
2	69241933	845	6
2	69325634	846	14
2	69409533	847	4
2	69493459	848	5
2	69577194	849	12
2	69661196	850	9
2	69745102	851	10
2	69829001	852	11
2	69913014	853	9
2	69996783	854	7
2	70080606	855	17
2	70164520	856	13
2	70247936	857	20
2	70331591	858	9
2	70415580	859	7
2	70499463	860	15
2	70583364	861	7
2	70667271	862	11
2	70751111	863	10
2	70834864	864	7
2	70918695	865	9
2	71002629	866	10
2	71086479	867	20
2	71170290	868	11
2	71254318	869	11
2	71338436	870	10
2	71422419	871	7
2	71506312	872	15
2	71590119	873	6
2	71674039	874	3
2	71758102	875	17
2	71841913	876	9
2	71925943	877	9
2	72009971	878	6
2	72093979	879	7
2	72178119	880	7
2	72262160	881	14
2	72345867	882	9
2	72429603	883	11
2	72513452	884	10
2	72597426	885	19
2	72681440	886	6
2	72765414	887	14
2	72849115	888	9
2	72932968	889	9
2	73016812	890	10
2	73100493	891	19
2	73184269	892	8
2	73268123	893	7
2	73352181	894	2
2	73436458	895	17
2	73520316	896	8
2	73604305	897	8
2	73688224	898	7
2	73772002	899	14
2	73856069	900	7
2	73939887	901	19
2	74023638	902	12
2	74107517	903	7
2	74191318	904	17
2	74275076	905	15
2	74358739	906	14
2	74442738	907	8
2	74526553	908	7
2	74610406	909	11
2	74694453	910	10
2	74778149	911	8
2	74861973	912	15
2	74946010	913	11
2	75029727	914	7
2	75113510	915	12
2	75197464	916	7
2	75281104	917	16
2	75364955	918	11
2	75448802	919	5
2	75532794	920	10
2	75616649	921	12
2	75700519	922	11
2	75784481	923	10
2	75868465	924	13
2	75952408	925	7
2	76036425	926	5
2	76120540	927	5
2	76204455	928	6
2	76288080	929	15
2	76371888	930	12
2	76455786	931	13
2	76539266	932	20
2	76623043	933	3
2	76707175	934	18
2	76790944	935	13
2	76874638	936	8
2	76958644	937	8
2	77042455	938	8
2	77126326	939	7
2	77210260	940	7
2	77294285	941	5
2	77378309	942	10
2	77462114	943	16
2	77545673	944	14
2	77629569	945	15
2	77713432	946	8
2	77797176	947	25
2	77881152	948	10
2	77965090	949	14
2	78049068	950	10
2	78133091	951	6
2	78217102	952	12
2	78300872	953	8
2	78384725	954	7
2	78468825	955	7
2	78552616	956	16
2	78636515	957	9
2	78720500	958	6
2	78804501	959	14
2	78888468	960	9
2	78972515	961	9
2	79056441	962	7
2	79140380	963	14
2	79224486	964	12
2	79308317	965	6
2	79392265	966	14
2	79476436	967	5
2	79560403	968	9
2	79644559	969	17
2	79728584	970	4
2	79812627	971	9
2	79896554	972	14
2	79980577	973	12
2	80064480	974	6
2	80148398	975	10
2	80232324	976	8
2	80316194	977	12
2	80400085	978	6
2	80483875	979	12
2	80567777	980	9
2	80651892	981	9
2	80736007	982	15
2	80819857	983	18
2	80903524	984	13
2	80987539	985	2
2	81071336	986	12
2	81155396	987	11
2	81239473	988	13
2	81323224	989	9
2	81407106	990	11
2	81491270	991	4
2	81575169	992	14
2	81659064	993	7
2	81742974	994	8
2	81826812	995	7
2	81910896	996	14
2	81994600	997	17
2	82078413	998	9
2	82162478	999	8
3	41988926	520	6
3	42072593	521	2
3	42156499	522	1
3	42240726	523	1
3	42324555	524	4
3	42408568	525	6
3	42492645	526	5
3	42576398	527	5
3	42660350	528	5
3	42744366	529	4
3	42828069	530	3
3	42911987	531	4
3	42995900	532	0
3	43079868	533	3
3	43163825	534	2
3	43247822	535	3
3	43331667	536	2
3	43415679	537	5
3	43499843	538	3
3	43583912	539	2
3	43667875	540	3
3	43751553	541	2
3	43835318	542	1
3	43919062	543	4
3	44002932	544	4
3	44086510	545	5
3	44170596	546	2
3	44254487	547	3
3	44338294	548	2
3	44422111	549	3
3	44505687	550	4
3	44589419	551	5
3	44673058	552	4
3	44756699	553	2
3	44840386	554	7
3	44924026	555	4
3	45008089	556	3
3	45091747	557	0
3	45175717	558	6
3	45259586	559	7
3	45343237	560	4
3	45427129	561	6
3	45510800	562	2
3	45594319	563	2
3	45678222	564	2
3	45762039	565	2
3	45845880	566	5
3	45929849	567	2
3	46013513	568	4
3	46097406	569	4
3	46181636	570	5
3	46265751	571	4
3	46349577	572	2
3	46433097	573	2
3	46517137	574	2
3	46600754	575	3
3	46684425	576	1
3	46768388	577	6
3	46852063	578	1
3	46935850	579	3
3	47019957	580	6
3	47103879	581	3
3	47187710	582	4
3	47271310	583	2
3	47354956	584	2
3	47438738	585	6
3	47522495	586	2
3	47606306	587	6
3	47690021	588	4
3	47774024	589	3
3	47857854	590	3
3	47941588	591	3
3	48025545	592	2
3	48109214	593	5
3	48192971	594	4
3	48277120	595	3
3	48360657	596	3
3	48444533	597	7
3	48528632	598	0
3	48612569	599	1
3	48696641	600	7
3	48780598	601	2
3	48864081	602	1
3	48947895	603	3
3	49031927	604	1
3	49115626	605	3
3	49199265	606	0
3	49283167	607	6
3	49366955	608	4
3	49450738	609	3
3	49534543	610	1
3	49618248	611	3
3	49701907	612	4
3	49785706	613	3
3	49869463	614	4
3	49953508	615	0
3	50037509	616	6
3	50121349	617	6
3	50205135	618	2
3	50288975	619	3
3	50372880	620	1
3	50456673	621	2
3	50540539	622	0
3	50624192	623	2
3	50708022	624	2
3	50792027	625	4
3	50875606	626	4
3	50959166	627	3
3	51042946	628	2
3	51126759	629	2
3	51210455	630	2
3	51294317	631	1
3	51377800	632	7
3	51461448	633	8
3	51545296	634	5
3	51628926	635	2
3	51712656	636	4
3	51796533	637	4
3	51880428	638	4
3	51964134	639	2
3	52048085	640	0
3	52132102	641	6
3	52216057	642	6
3	52300167	643	3
3	52384001	644	2
3	52467769	645	2
3	52551697	646	5
3	52635461	647	4
3	52719486	648	9
3	52803429	649	2
3	52887328	650	3
3	52971483	651	4
3	53055570	652	3
3	53139439	653	2
3	53223266	654	3
3	53307091	655	2
3	53390893	656	4
3	53474992	657	4
3	53558994	658	1
3	53642926	659	3
3	53726609	660	3
3	53810644	661	5
3	53894403	662	2
3	53978361	663	3
3	54062545	664	3
3	54146496	665	3
3	54230382	666	2
3	54314577	667	4
3	54398609	668	3
3	54482698	669	6
3	54566509	670	4
3	54650503	671	2
3	54734470	672	5
3	54818325	673	2
3	54902111	674	8
3	54985890	675	5
3	55069789	676	6
3	55153948	677	2
3	55238069	678	7
3	55322006	679	1
3	55406036	680	5
3	55489835	681	3
3	55573680	682	6
3	55657580	683	2
3	55741595	684	2
3	55825208	685	3
3	55908858	686	6
3	55992594	687	6
3	56076456	688	3
3	56160383	689	3
3	56243801	690	4
3	56327586	691	6
3	56411121	692	7
3	56494804	693	1
3	56578768	694	4
3	56662700	695	5
3	56746401	696	6
3	56830359	697	8
3	56914012	698	7
3	56997899	699	1
3	57081833	700	2
3	57165896	701	5
3	57249748	702	3
3	57333625	703	6
3	57417079	704	4
3	57500811	705	3
3	57584607	706	1
3	57668423	707	5
3	57752281	708	6
3	57836164	709	6
3	57919985	710	4
3	58003956	711	2
3	58087982	712	3
3	58171845	713	2
3	58255663	714	5
3	58339614	715	3
3	58423444	716	6
3	58507400	717	2
3	58591513	718	1
3	58675588	719	4
3	58759538	720	4
3	58843413	721	4
3	58927092	722	10
3	59011053	723	3
3	59095018	724	0
3	59178926	725	11
3	59262880	726	2
3	59346687	727	4
3	59430605	728	2
3	59514381	729	6
3	59598396	730	7
3	59682217	731	2
3	59766062	732	1
3	59850040	733	6
3	59933437	734	3
3	60017084	735	2
3	60100857	736	1
3	60184655	737	4
3	60268413	738	2
3	60352240	739	3
3	60435882	740	4
3	60519656	741	4
3	60603597	742	3
3	60687357	743	2
3	60771343	744	5
3	60855311	745	5
3	60939044	746	5
3	61022971	747	3
3	61107083	748	4
3	61190943	749	6
3	61274781	750	3
3	61358903	751	3
3	61442828	752	3
3	61526504	753	3
3	61610719	754	5
3	61694603	755	2
3	61778446	756	4
3	61862362	757	2
3	61946149	758	4
3	62030157	759	2
3	62114114	760	1
3	62197911	761	6
3	62281788	762	3
3	62365600	763	2
3	62449189	764	2
3	62533016	765	2
3	62616900	766	4
3	62700826	767	4
3	62784800	768	4
3	62868752	769	2
3	62952756	770	3
3	63036560	771	4
3	63120427	772	3
3	63204035	773	4
3	63287948	774	3
3	63372081	775	2
3	63455860	776	5
3	63539625	777	3
3	63623675	778	2
3	63707553	779	1
3	63791249	780	5
3	63875195	781	5
3	63958900	782	4
3	64042724	783	2
3	64126725	784	1
3	64210698	785	2
3	64294473	786	2
3	64378251	787	5
3	64461837	788	8
3	64545704	789	7
3	64629454	790	6
3	64713299	791	5
3	64797202	792	3
3	64880900	793	3
3	64964640	794	2
3	65048622	795	3
3	65132633	796	4
3	65216723	797	2
3	65300509	798	5
3	65384491	799	1
3	65468217	800	1
3	65551790	801	4
3	65635860	802	3
3	65719963	803	3
3	65803760	804	3
3	65887821	805	3
3	65971533	806	4
3	66055571	807	2
3	66139543	808	5
3	66223345	809	1
3	66306947	810	4
3	66390783	811	3
3	66474595	812	3
3	66558507	813	4
3	66642560	814	2
3	66726398	815	5
3	66810129	816	5
3	66894058	817	3
3	66977753	818	4
3	67061525	819	1
3	67145365	820	2
3	67229037	821	0
3	67313024	822	3
3	67396960	823	3
3	67480681	824	2
3	67564669	825	6
3	67648388	826	1
3	67732142	827	2
3	67816093	828	2
3	67900120	829	9
3	67983970	830	5
3	68067756	831	4
3	68151618	832	5
3	68235463	833	3
3	68319149	834	3
3	68403047	835	3
3	68486964	836	3
3	68571029	837	4
3	68655040	838	3
3	68738798	839	4
3	68822591	840	4
3	68906632	841	0
3	68990632	842	3
3	69074412	843	3
3	69158257	844	3
3	69241933	845	1
3	69325634	846	1
3	69409533	847	6
3	69493459	848	0
3	69577194	849	4
3	69661196	850	5
3	69745102	851	3
3	69829001	852	4
3	69913014	853	3
3	69996783	854	3
3	70080606	855	4
3	70164520	856	3
3	70247936	857	1
3	70331591	858	1
3	70415580	859	3
3	70499463	860	3
3	70583364	861	5
3	70667271	862	2
3	70751111	863	0
3	70834864	864	6
3	70918695	865	7
3	71002629	866	3
3	71086479	867	9
3	71170290	868	5
3	71254318	869	2
3	71338436	870	7
3	71422419	871	4
3	71506312	872	8
3	71590119	873	3
3	71674039	874	2
3	71758102	875	2
3	71841913	876	2
3	71925943	877	3
3	72009971	878	3
3	72093979	879	2
3	72178119	880	1
3	72262160	881	2
3	72345867	882	7
3	72429603	883	2
3	72513452	884	5
3	72597426	885	5
3	72681440	886	4
3	72765414	887	4
3	72849115	888	4
3	72932968	889	4
3	73016812	890	2
3	73100493	891	5
3	73184269	892	2
3	73268123	893	5
3	73352181	894	2
3	73436458	895	1
3	73520316	896	3
3	73604305	897	3
3	73688224	898	3
3	73772002	899	2
3	73856069	900	3
3	73939887	901	3
3	74023638	902	3
3	74107517	903	3
3	74191318	904	2
3	74275076	905	3
3	74358739	906	5
3	74442738	907	3
3	74526553	908	2
3	74610406	909	3
3	74694453	910	4
3	74778149	911	1
3	74861973	912	2
3	74946010	913	1
3	75029727	914	2
3	75113510	915	4
3	75197464	916	4
3	75281104	917	7
3	75364955	918	1
3	75448802	919	5
3	75532794	920	5
3	75616649	921	7
3	75700519	922	9
3	75784481	923	5
3	75868465	924	6
3	75952408	925	5
3	76036425	926	3
3	76120540	927	1
3	76204455	928	5
3	76288080	929	1
3	76371888	930	2
3	76455786	931	4
3	76539266	932	1
3	76623043	933	4
3	76707175	934	1
3	76790944	935	3
3	76874638	936	6
3	76958644	937	2
3	77042455	938	5
3	77126326	939	3
3	77210260	940	2
3	77294285	941	1
3	77378309	942	1
3	77462114	943	2
3	77545673	944	4
3	77629569	945	2
3	77713432	946	0
3	77797176	947	1
3	77881152	948	4
3	77965090	949	4
3	78049068	950	2
3	78133091	951	4
3	78217102	952	3
3	78300872	953	3
3	78384725	954	4
3	78468825	955	3
3	78552616	956	2
3	78636515	957	6
3	78720500	958	4
3	78804501	959	4
3	78888468	960	2
3	78972515	961	2
3	79056441	962	6
3	79140380	963	2
3	79224486	964	4
3	79308317	965	4
3	79392265	966	5
3	79476436	967	3
3	79560403	968	4
3	79644559	969	1
3	79728584	970	1
3	79812627	971	3
3	79896554	972	5
3	79980577	973	5
3	80064480	974	7
3	80148398	975	2
3	80232324	976	3
3	80316194	977	5
3	80400085	978	2
3	80483875	979	6
3	80567777	980	6
3	80651892	981	4
3	80736007	982	3
3	80819857	983	2
3	80903524	984	3
3	80987539	985	3
3	81071336	986	1
3	81155396	987	3
3	81239473	988	8
3	81323224	989	1
3	81407106	990	1
3	81491270	991	5
3	81575169	992	6
3	81659064	993	1
3	81742974	994	2
3	81826812	995	6
3	81910896	996	1
3	81994600	997	5
3	82078413	998	3
3	82162478	999	4
4	41988926	520	0.02241529973975
4	42072593	521	0.022370769241737
4	42156499	522	0.022326388847715
4	42240726	523	0.022281709542508
4	42324555	524	0.022237077385691
4	42408568	525	0.022193382298338
4	42492645	526	0.022149155054673
4	42576398	527	0.022105389215933
4	42660350	528	0.022062080359968
4	42744366	529	0.022018477371068
4	42828069	530	0.021975277229537
4	42911987	531	0.021932527307907
4	42995900	532	0.021889358060976
4	43079868	533	0.02184673865369
4	43163825	534	0.021804057629973
4	43247822	535	0.021761593353629
4	43331667	536	0.02171921899405
4	43415679	537	0.021677383700514
4	43499843	538	0.021635137448851
4	43583912	539	0.021593154598408
4	43667875	540	0.02155148237982