version 2
run PerfectCC-2-20100909-16:49:57-336
attr configname PerfectCC
attr datetime 20100909-16:49:57
attr delay 500ms
attr experiment PerfectCC
attr inifile D:/Developement/Oversim2/multic/simulations/omnetpp.ini
attr iterationvars $delay=500ms
attr iterationvars2 "$delay=500ms, $repetition=0"
attr measurement $delay=500ms
attr network oversim.underlay.simpleunderlay.SimpleUnderlayNetwork
attr processid 336
attr repetition 0
attr replication #0
attr resultdir results
attr runnumber 2
attr seedset 2

vector 1  SimpleUnderlayNetwork.globalObserver.globalStatistics  incoming_bytes  ETV
vector 2  SimpleUnderlayNetwork.globalObserver.globalStatistics  drops  ETV
vector 3  SimpleUnderlayNetwork.globalObserver.globalStatistics  delayed_acks  ETV
vector 4  SimpleUnderlayNetwork.globalObserver.globalStatistics  timetotimeouts  ETV
vector 5  SimpleUnderlayNetwork.globalObserver.globalStatistics  rate  ETV
vector 6  SimpleUnderlayNetwork.globalObserver.globalStatistics  "GlobalNodeList: Number of nodes"  ETV
vector 7  SimpleUnderlayNetwork.globalObserver.globalStatistics  "GlobalNodeList: Number of bootstrapped malicious nodes"  ETV
1	41769588	519	86390
1	41853185	520	90524
1	41936585	521	88404
1	42019813	522	86655
1	42102807	523	84376
1	42185939	524	89093
1	42269481	525	90259
1	42353012	526	90736
1	42436354	527	83634
1	42519465	528	87503
1	42602661	529	88139
1	42686359	530	88934
1	42770231	531	89305
1	42854301	532	89411
1	42938189	533	90259
1	43022076	534	87397
1	43105758	535	90206
1	43189725	536	85754
1	43273416	537	91425
1	43357488	538	89199
1	43441639	539	89570
1	43525150	540	89729
1	43608442	541	84800
1	43692102	542	88669
1	43775429	543	92432
1	43858832	544	82256
1	43942688	545	89888
1	44026421	546	92644
1	44110690	547	88563
1	44194512	548	89199
1	44278313	549	85330
1	44362083	550	91584
1	44446256	551	87556
1	44530364	552	93015
1	44614258	553	87980
1	44697861	554	87026
1	44781357	555	88086
1	44864720	556	88245
1	44948452	557	88669
1	45032344	558	89305
1	45116220	559	89729
1	45200129	560	88775
1	45283561	561	86708
1	45366947	562	87238
1	45450074	563	87715
1	45533342	564	90259
1	45616372	565	86072
1	45699577	566	84959
1	45782558	567	88987
1	45865917	568	88722
1	45949422	569	88086
1	46033033	570	87609
1	46116823	571	90259
1	46200674	572	88775
1	46284095	573	87662
1	46367652	574	88722
1	46450885	575	87980
1	46534004	576	84588
1	46617238	577	89517
1	46700468	578	88828
1	46784149	579	86602
1	46867669	580	90736
1	46951418	581	87079
1	47035333	582	91637
1	47119466	583	86867
1	47204114	584	92591
1	47288273	585	90789
1	47372208	586	87185
1	47456223	587	88616
1	47540222	588	88881
1	47623936	589	92273
1	47707752	590	85436
1	47791425	591	88987
1	47874961	592	89252
1	47958731	593	89199
1	48042305	594	88510
1	48125922	595	87927
1	48209541	596	88775
1	48292873	597	88298
1	48376435	598	85330
1	48459888	599	91902
1	48543454	600	86443
1	48627093	601	89623
1	48710729	602	89305
1	48794333	603	87238
1	48877896	604	88881
1	48961045	605	85754
1	49044018	606	87556
1	49127146	607	87609
1	49210848	608	87503
1	49294996	609	93015
1	49378772	610	87450
1	49462637	611	88033
1	49546888	612	89994
1	49630643	613	91955
1	49714891	614	84535
1	49798578	615	94711
1	49881828	616	83899
1	49964989	617	86814
1	50048074	618	85701
1	50131154	619	91796
1	50214598	620	86231
1	50298303	621	90206
1	50381603	622	86496
1	50465183	623	87503
1	50548507	624	90736
1	50631867	625	85542
1	50715361	626	90842
1	50798854	627	86178
1	50882253	628	89305
1	50965870	629	87715
1	51049397	630	88351
1	51132828	631	87821
1	51216457	632	89464
1	51299979	633	88563
1	51383237	634	86920
1	51466517	635	86390
1	51549776	636	89464
1	51633343	637	87291
1	51717005	638	90524
1	51800772	639	88298
1	51884749	640	90047
1	51968278	641	88404
1	52052100	642	86390
1	52135622	643	92591
1	52219503	644	84482
1	52303417	645	91690
1	52387049	646	87026
1	52470939	647	90259
1	52554397	648	89623
1	52637750	649	84906
1	52721160	650	87238
1	52804471	651	89517
1	52887718	652	88245
1	52970710	653	86549
1	53053846	654	84906
1	53137044	655	90047
1	53220342	656	89782
1	53303694	657	85224
1	53387227	658	87715
1	53470509	659	91001
1	53554000	660	86761
1	53637659	661	87556
1	53721441	662	89729
1	53805635	663	89729
1	53889820	664	92326
1	53973599	665	86761
1	54057136	666	87238
1	54140182	667	89093
1	54223437	668	84376
1	54306845	669	89729
1	54390217	670	89729
1	54473935	671	87291
1	54558098	672	90683
1	54641948	673	90206
1	54725732	674	85966
1	54809378	675	91213
1	54892912	676	87291
1	54976945	677	88669
1	55060941	678	91425
1	55144974	679	88033
1	55229282	680	91001
1	55313146	681	88722
1	55396578	682	86602
1	55479978	683	86443
1	55563097	684	89305
1	55646722	685	86443
1	55730153	686	92750
1	55813562	687	83793
1	55897162	688	90683
1	55980675	689	87026
1	56064389	690	89994
1	56148110	691	88722
1	56231717	692	86814
1	56315161	693	87821
1	56398566	694	90206
1	56481873	695	87185
1	56565406	696	86231
1	56648665	697	90100
1	56732088	698	88828
1	56815862	699	86231
1	56899302	700	91266
1	56982882	701	86602
1	57066701	702	90259
1	57150390	703	87768
1	57234075	704	89040
1	57317783	705	88139
1	57401786	706	91001
1	57485536	707	88934
1	57569332	708	85807
1	57652724	709	89411
1	57736315	710	89199
1	57819986	711	90365
1	57903777	712	85118
1	57987047	713	89411
1	58070402	714	87397
1	58154055	715	89252
1	58237881	716	88510
1	58321619	717	89994
1	58405244	718	88934
1	58488540	719	86761
1	58571803	720	85966
1	58655261	721	88616
1	58738934	722	90100
1	58822705	723	89146
1	58906418	724	87927
1	58989641	725	87026
1	59073051	726	86602
1	59156872	727	92167
1	59240089	728	86973
1	59323057	729	85118
1	59405861	730	86549
1	59488999	731	86337
1	59572159	732	89252
1	59655295	733	87768
1	59738694	734	88404
1	59822390	735	87185
1	59905854	736	88987
1	59989229	737	87874
1	60072714	738	88086
1	60156467	739	89040
1	60239974	740	89517
1	60323537	741	86761
1	60407416	742	88192
1	60491064	743	92591
1	60574575	744	86708
1	60658546	745	85860
1	60742357	746	92114
1	60826062	747	88828
1	60909712	748	85171
1	60993329	749	91584
1	61077114	750	88298
1	61160799	751	89252
1	61244133	752	85118
1	61327647	753	90789
1	61411735	754	88457
1	61495416	755	88245
1	61579152	756	87609
1	61662585	757	90948
1	61745935	758	84694
1	61829238	759	90471
1	61912816	760	86549
1	61996640	761	89411
1	62080114	762	89464
1	62163604	763	87450
1	62247185	764	87715
1	62330545	765	89146
1	62414134	766	85118
1	62498133	767	92697
1	62581770	768	89358
1	62665847	769	86920
1	62749871	770	91531
1	62833293	771	87768
1	62917020	772	86337
1	63000049	773	90736
1	63083002	774	83263
1	63166097	775	87238
1	63249126	776	87556
1	63332497	777	90365
1	63416044	778	87238
1	63499906	779	88775
1	63584072	780	89464
1	63668084	781	93651
1	63751880	782	85065
1	63835415	783	88616
1	63918728	784	86284
1	64002500	785	89199
1	64085947	786	91690
1	64169527	787	85012
1	64253486	788	88881
1	64336769	789	89941
1	64419993	790	87556
1	64503325	791	85913
1	64586513	792	88722
1	64669601	793	87874
1	64753026	794	87927
1	64836529	795	88775
1	64919669	796	87927
1	65002809	797	85224
1	65085947	798	88404
1	65169501	799	89146
1	65252873	800	90153
1	65336084	801	84429
1	65419543	802	88298
1	65502962	803	88510
1	65586031	804	89411
1	65668703	805	83793
1	65751620	806	84111
1	65835012	807	89782
1	65918763	808	93015
1	66002676	809	86867
1	66086812	810	86761
1	66170302	811	90100
1	66253800	812	88192
1	66337458	813	87980
1	66421185	814	88934
1	66505009	815	91213
1	66588804	816	88404
1	66672605	817	86390
1	66756115	818	89252
1	66839699	819	89411
1	66923223	820	87238
1	67007051	821	88775
1	67090590	822	89570
1	67174087	823	87609
1	67257535	824	88245
1	67340772	825	88245
1	67424184	826	85913
1	67507274	827	89305
1	67590657	828	85224
1	67674163	829	90895
1	67757760	830	89040
1	67841773	831	86920
1	67925413	832	88298
1	68009175	833	88722
1	68093175	834	92538
1	68177081	835	87768
1	68260855	836	86814
1	68344796	837	91372
1	68428618	838	89729
1	68512420	839	86019
1	68596625	840	91319
1	68680747	841	91107
1	68764627	842	89199
1	68847852	843	85277
1	68931022	844	86125
1	69014581	845	89729
1	69097905	846	89729
1	69181396	847	86708
1	69264882	848	87980
1	69348423	849	89782
1	69431742	850	88616
1	69515021	851	84005
1	69597928	852	89676
1	69681113	853	85860
1	69764707	854	91213
1	69848265	855	88033
1	69931963	856	86761
1	70015633	857	90471
1	70099085	858	88669
1	70182329	859	87344
1	70265862	860	86284
1	70348895	861	88775
1	70432153	862	86443
1	70515642	863	89517
1	70599339	864	88722
1	70683009	865	89888
1	70766592	866	87185
1	70850232	867	88086
1	70933848	868	89040
1	71017149	869	89888
1	71100906	870	84959
1	71184500	871	92220
1	71268302	872	84111
1	71352004	873	91584
1	71435387	874	90524
1	71519164	875	84376
1	71602558	876	91054
1	71685425	877	84800
1	71768708	878	87291
1	71851888	879	89570
1	71935272	880	86973
1	72018937	881	91160
1	72102358	882	86655
1	72185946	883	86602
1	72269545	884	90206
1	72352752	885	89358
1	72436264	886	85701
1	72519653	887	89411
1	72602972	888	86867
1	72686531	889	88616
1	72769758	890	87768
1	72852930	891	87450
1	72936365	892	87291
1	73020131	893	89040
1	73103690	894	91796
1	73187111	895	84376
1	73270775	896	89941
1	73354271	897	89146
1	73438395	898	86814
1	73522330	899	92803
1	73605849	900	85913
1	73689640	901	90047
1	73773667	902	87768
1	73857730	903	91478
1	73941785	904	89623
1	74025809	905	86337
1	74109567	906	90471
1	74193606	907	89305
1	74277413	908	89994
1	74360715	909	86019
1	74444060	910	86284
1	74527836	911	92591
1	74611794	912	87609
1	74695722	913	90471
1	74779207	914	86443
1	74862835	915	85807
1	74946193	916	91637
1	75029453	917	85966
1	75113582	918	88563
1	75197515	919	94075
1	75281372	920	85012
1	75365123	921	90100
1	75448798	922	86920
1	75532379	923	91531
1	75615890	924	85118
1	75699672	925	88828
1	75783338	926	89199
1	75867427	927	89994
1	75951362	928	91160
1	76034800	929	86072
1	76118276	930	87503
1	76201803	931	89994
1	76284961	932	86284
1	76368237	933	86708
1	76451357	934	90047
1	76534241	935	85648
1	76617589	936	86231
1	76700830	937	90789
1	76784308	938	86973
1	76868109	939	89040
1	76951793	940	89464
1	77035644	941	88192
1	77119396	942	89199
1	77203160	943	89040
1	77286738	944	87662
1	77370284	945	87662
1	77453852	946	89782
1	77537562	947	88722
1	77621120	948	88086
1	77704448	949	87927
1	77787927	950	87821
1	77871498	951	90100
1	77954391	952	87132
1	78037443	953	83846
1	78121114	954	90100
1	78205049	955	91054
1	78288604	956	89570
1	78371863	957	83899
1	78455349	958	87185
1	78538262	959	88033
1	78621630	960	88457
1	78705150	961	88934
1	78788417	962	87821
1	78871700	963	87556
1	78955445	964	88298
1	79038996	965	89358
1	79122387	966	87821
1	79205714	967	88033
1	79289521	968	86549
1	79373312	969	92326
1	79456947	970	88245
1	79541122	971	87503
1	79625019	972	92114
1	79708713	973	88881
1	79792260	974	85012
1	79875671	975	90047
1	79959050	976	88404
1	80042823	977	87238
1	80126415	978	89676
1	80210070	979	85595
1	80293868	980	91001
1	80377732	981	88298
1	80461732	982	90259
1	80545735	983	89782
1	80630022	984	87980
1	80713965	985	93757
1	80797430	986	84747
1	80880766	987	87609
1	80964295	988	87291
1	81047412	989	89252
1	81130596	990	86443
1	81213624	991	88245
1	81296991	992	85754
1	81380607	993	88934
1	81464434	994	91425
1	81548481	995	89146
1	81632534	996	89305
1	81716566	997	89093
1	81800141	998	90789
1	81883463	999	84376
2	41769588	519	26
2	41853185	520	31
2	41936585	521	68
2	42019813	522	38
2	42102807	523	14
2	42185939	524	20
2	42269481	525	32
2	42353012	526	34
2	42436354	527	44
2	42519465	528	12
2	42602661	529	29
2	42686359	530	44
2	42770231	531	45
2	42854301	532	37
2	42938189	533	20
2	43022076	534	55
2	43105758	535	25
2	43189725	536	43
2	43273416	537	45
2	43357488	538	55
2	43441639	539	46
2	43525150	540	26
2	43608442	541	20
2	43692102	542	77
2	43775429	543	37
2	43858832	544	17
2	43942688	545	24
2	44026421	546	28
2	44110690	547	81
2	44194512	548	31
2	44278313	549	48
2	44362083	550	52
2	44446256	551	23
2	44530364	552	26
2	44614258	553	36
2	44697861	554	42
2	44781357	555	50
2	44864720	556	33
2	44948452	557	24
2	45032344	558	46
2	45116220	559	50
2	45200129	560	57
2	45283561	561	44
2	45366947	562	58
2	45450074	563	30
2	45533342	564	45
2	45616372	565	53
2	45699577	566	47
2	45782558	567	38
2	45865917	568	35
2	45949422	569	24
2	46033033	570	35
2	46116823	571	20
2	46200674	572	64
2	46284095	573	12
2	46367652	574	78
2	46450885	575	20
2	46534004	576	22
2	46617238	577	48
2	46700468	578	26
2	46784149	579	20
2	46867669	580	23
2	46951418	581	34
2	47035333	582	26
2	47119466	583	24
2	47204114	584	63
2	47288273	585	16
2	47372208	586	18
2	47456223	587	42
2	47540222	588	64
2	47623936	589	19
2	47707752	590	23
2	47791425	591	43
2	47874961	592	36
2	47958731	593	27
2	48042305	594	29
2	48125922	595	45
2	48209541	596	59
2	48292873	597	34
2	48376435	598	32
2	48459888	599	33
2	48543454	600	27
2	48627093	601	32
2	48710729	602	45
2	48794333	603	54
2	48877896	604	61
2	48961045	605	25
2	49044018	606	30
2	49127146	607	24
2	49210848	608	31
2	49294996	609	76
2	49378772	610	38
2	49462637	611	23
2	49546888	612	37
2	49630643	613	31
2	49714891	614	36
2	49798578	615	35
2	49881828	616	59
2	49964989	617	32
2	50048074	618	20
2	50131154	619	17
2	50214598	620	36
2	50298303	621	46
2	50381603	622	26
2	50465183	623	27
2	50548507	624	27
2	50631867	625	23
2	50715361	626	45
2	50798854	627	23
2	50882253	628	22
2	50965870	629	39
2	51049397	630	34
2	51132828	631	17
2	51216457	632	48
2	51299979	633	23
2	51383237	634	40
2	51466517	635	59
2	51549776	636	24
2	51633343	637	24
2	51717005	638	16
2	51800772	639	28
2	51884749	640	50
2	51968278	641	14
2	52052100	642	28
2	52135622	643	54
2	52219503	644	31
2	52303417	645	36
2	52387049	646	20
2	52470939	647	42
2	52554397	648	61
2	52637750	649	51
2	52721160	650	56
2	52804471	651	45
2	52887718	652	40
2	52970710	653	29
2	53053846	654	42
2	53137044	655	46
2	53220342	656	33
2	53303694	657	47
2	53387227	658	19
2	53470509	659	24
2	53554000	660	34
2	53637659	661	27
2	53721441	662	32
2	53805635	663	34
2	53889820	664	64
2	53973599	665	30
2	54057136	666	47
2	54140182	667	63
2	54223437	668	40
2	54306845	669	11
2	54390217	670	11
2	54473935	671	17
2	54558098	672	33
2	54641948	673	38
2	54725732	674	9
2	54809378	675	14
2	54892912	676	38
2	54976945	677	45
2	55060941	678	11
2	55144974	679	21
2	55229282	680	44
2	55313146	681	77
2	55396578	682	37
2	55479978	683	45
2	55563097	684	21
2	55646722	685	56
2	55730153	686	46
2	55813562	687	24
2	55897162	688	46
2	55980675	689	39
2	56064389	690	24
2	56148110	691	58
2	56231717	692	38
2	56315161	693	18
2	56398566	694	32
2	56481873	695	33
2	56565406	696	12
2	56648665	697	48
2	56732088	698	34
2	56815862	699	24
2	56899302	700	31
2	56982882	701	29
2	57066701	702	58
2	57150390	703	29
2	57234075	704	9
2	57317783	705	40
2	57401786	706	39
2	57485536	707	22
2	57569332	708	21
2	57652724	709	15
2	57736315	710	38
2	57819986	711	36
2	57903777	712	46
2	57987047	713	33
2	58070402	714	43
2	58154055	715	43
2	58237881	716	42
2	58321619	717	31
2	58405244	718	34
2	58488540	719	24
2	58571803	720	36
2	58655261	721	14
2	58738934	722	67
2	58822705	723	54
2	58906418	724	54
2	58989641	725	30
2	59073051	726	12
2	59156872	727	102
2	59240089	728	19
2	59323057	729	45
2	59405861	730	37
2	59488999	731	82
2	59572159	732	54
2	59655295	733	15
2	59738694	734	44
2	59822390	735	55
2	59905854	736	52
2	59989229	737	23
2	60072714	738	44
2	60156467	739	50
2	60239974	740	38
2	60323537	741	27
2	60407416	742	6
2	60491064	743	46
2	60574575	744	34
2	60658546	745	28
2	60742357	746	68
2	60826062	747	35
2	60909712	748	33
2	60993329	749	36
2	61077114	750	59
2	61160799	751	25
2	61244133	752	40
2	61327647	753	34
2	61411735	754	101
2	61495416	755	13
2	61579152	756	85
2	61662585	757	13
2	61745935	758	20
2	61829238	759	51
2	61912816	760	57
2	61996640	761	27
2	62080114	762	34
2	62163604	763	60
2	62247185	764	38
2	62330545	765	25
2	62414134	766	36
2	62498133	767	47
2	62581770	768	19
2	62665847	769	31
2	62749871	770	55
2	62833293	771	26
2	62917020	772	72
2	63000049	773	29
2	63083002	774	58
2	63166097	775	32
2	63249126	776	42
2	63332497	777	27
2	63416044	778	27
2	63499906	779	24
2	63584072	780	47
2	63668084	781	36
2	63751880	782	59
2	63835415	783	30
2	63918728	784	30
2	64002500	785	31
2	64085947	786	13
2	64169527	787	35
2	64253486	788	53
2	64336769	789	26
2	64419993	790	41
2	64503325	791	27
2	64586513	792	27
2	64669601	793	17
2	64753026	794	54
2	64836529	795	53
2	64919669	796	31
2	65002809	797	31
2	65085947	798	36
2	65169501	799	32
2	65252873	800	35
2	65336084	801	49
2	65419543	802	31
2	65502962	803	80
2	65586031	804	85
2	65668703	805	27
2	65751620	806	36
2	65835012	807	32
2	65918763	808	69
2	66002676	809	24
2	66086812	810	78
2	66170302	811	53
2	66253800	812	20
2	66337458	813	11
2	66421185	814	30
2	66505009	815	55
2	66588804	816	36
2	66672605	817	30
2	66756115	818	37
2	66839699	819	45
2	66923223	820	24
2	67007051	821	52
2	67090590	822	25
2	67174087	823	31
2	67257535	824	23
2	67340772	825	39
2	67424184	826	75
2	67507274	827	28
2	67590657	828	38
2	67674163	829	16
2	67757760	830	47
2	67841773	831	85
2	67925413	832	28
2	68009175	833	18
2	68093175	834	45
2	68177081	835	39
2	68260855	836	19
2	68344796	837	47
2	68428618	838	39
2	68512420	839	18
2	68596625	840	32
2	68680747	841	67
2	68764627	842	29
2	68847852	843	30
2	68931022	844	15
2	69014581	845	52
2	69097905	846	7
2	69181396	847	23
2	69264882	848	24
2	69348423	849	66
2	69431742	850	48
2	69515021	851	45
2	69597928	852	18
2	69681113	853	8
2	69764707	854	47
2	69848265	855	47
2	69931963	856	14
2	70015633	857	41
2	70099085	858	40
2	70182329	859	21
2	70265862	860	53
2	70348895	861	34
2	70432153	862	16
2	70515642	863	39
2	70599339	864	19
2	70683009	865	36
2	70766592	866	29
2	70850232	867	50
2	70933848	868	28
2	71017149	869	18
2	71100906	870	71
2	71184500	871	37
2	71268302	872	55
2	71352004	873	23
2	71435387	874	27
2	71519164	875	35
2	71602558	876	37
2	71685425	877	24
2	71768708	878	32
2	71851888	879	28
2	71935272	880	19
2	72018937	881	47
2	72102358	882	21
2	72185946	883	36
2	72269545	884	36
2	72352752	885	26
2	72436264	886	22
2	72519653	887	26
2	72602972	888	57
2	72686531	889	53
2	72769758	890	53
2	72852930	891	26
2	72936365	892	12
2	73020131	893	36
2	73103690	894	22
2	73187111	895	19
2	73270775	896	51
2	73354271	897	44
2	73438395	898	20
2	73522330	899	80
2	73605849	900	9
2	73689640	901	10
2	73773667	902	29
2	73857730	903	66
2	73941785	904	13
2	74025809	905	58
2	74109567	906	25
2	74193606	907	55
2	74277413	908	44
2	74360715	909	25
2	74444060	910	26
2	74527836	911	44
2	74611794	912	26
2	74695722	913	75
2	74779207	914	49
2	74862835	915	45
2	74946193	916	36
2	75029453	917	27
2	75113582	918	44
2	75197515	919	47
2	75281372	920	37
2	75365123	921	22
2	75448798	922	42
2	75532379	923	49
2	75615890	924	37
2	75699672	925	43
2	75783338	926	30
2	75867427	927	51
2	75951362	928	24
2	76034800	929	21
2	76118276	930	35
2	76201803	931	54
2	76284961	932	24
2	76368237	933	26
2	76451357	934	74
2	76534241	935	18
2	76617589	936	30
2	76700830	937	17
2	76784308	938	25
2	76868109	939	33
2	76951793	940	32
2	77035644	941	47
2	77119396	942	67
2	77203160	943	36
2	77286738	944	23
2	77370284	945	25
2	77453852	946	22
2	77537562	947	40
2	77621120	948	16
2	77704448	949	15
2	77787927	950	61
2	77871498	951	66
2	77954391	952	19
2	78037443	953	28
2	78121114	954	47
2	78205049	955	47
2	78288604	956	29
2	78371863	957	46
2	78455349	958	79
2	78538262	959	28
2	78621630	960	46
2	78705150	961	24
2	78788417	962	20
2	78871700	963	22
2	78955445	964	79
2	79038996	965	21
2	79122387	966	48
2	79205714	967	23
2	79289521	968	41
2	79373312	969	15
2	79456947	970	14
2	79541122	971	31
2	79625019	972	39
2	79708713	973	36
2	79792260	974	15
2	79875671	975	62
2	79959050	976	48
2	80042823	977	45
2	80126415	978	27
2	80210070	979	60
2	80293868	980	42
2	80377732	981	20
2	80461732	982	22
2	80545735	983	21
2	80630022	984	32
2	80713965	985	19
2	80797430	986	17
2	80880766	987	48
2	80964295	988	69
2	81047412	989	27
2	81130596	990	40
2	81213624	991	26
2	81296991	992	45
2	81380607	993	12
2	81464434	994	48
2	81548481	995	11
2	81632534	996	37
2	81716566	997	43
2	81800141	998	17
2	81883463	999	26
3	41769588	519	4
3	41853185	520	4
3	41936585	521	5
3	42019813	522	1
3	42102807	523	2
3	42185939	524	7
3	42269481	525	0
3	42353012	526	7
3	42436354	527	3
3	42519465	528	3
3	42602661	529	5
3	42686359	530	2
3	42770231	531	3
3	42854301	532	2
3	42938189	533	4
3	43022076	534	3
3	43105758	535	3
3	43189725	536	3
3	43273416	537	5
3	43357488	538	4
3	43441639	539	7
3	43525150	540	5
3	43608442	541	3
3	43692102	542	7
3	43775429	543	4
3	43858832	544	4
3	43942688	545	1
3	44026421	546	4
3	44110690	547	4
3	44194512	548	4
3	44278313	549	5
3	44362083	550	2
3	44446256	551	1
3	44530364	552	2
3	44614258	553	3
3	44697861	554	4
3	44781357	555	3
3	44864720	556	3
3	44948452	557	2
3	45032344	558	2
3	45116220	559	2
3	45200129	560	1
3	45283561	561	3
3	45366947	562	0
3	45450074	563	2
3	45533342	564	1
3	45616372	565	4
3	45699577	566	1
3	45782558	567	3
3	45865917	568	3
3	45949422	569	3
3	46033033	570	2
3	46116823	571	7
3	46200674	572	5
3	46284095	573	5
3	46367652	574	2
3	46450885	575	2
3	46534004	576	3
3	46617238	577	3
3	46700468	578	3
3	46784149	579	3
3	46867669	580	4
3	46951418	581	1
3	47035333	582	5
3	47119466	583	3
3	47204114	584	4
3	47288273	585	2
3	47372208	586	6
3	47456223	587	3
3	47540222	588	3
3	47623936	589	3
3	47707752	590	2
3	47791425	591	2
3	47874961	592	3
3	47958731	593	1
3	48042305	594	1
3	48125922	595	3
3	48209541	596	5
3	48292873	597	1
3	48376435	598	3
3	48459888	599	5
3	48543454	600	5
3	48627093	601	4
3	48710729	602	2
3	48794333	603	2
3	48877896	604	1
3	48961045	605	3
3	49044018	606	1
3	49127146	607	2
3	49210848	608	2
3	49294996	609	2
3	49378772	610	2
3	49462637	611	4
3	49546888	612	4
3	49630643	613	4
3	49714891	614	4
3	49798578	615	3
3	49881828	616	4
3	49964989	617	2
3	50048074	618	8
3	50131154	619	5
3	50214598	620	3
3	50298303	621	3
3	50381603	622	2
3	50465183	623	3
3	50548507	624	4
3	50631867	625	2
3	50715361	626	2
3	50798854	627	2
3	50882253	628	1
3	50965870	629	6
3	51049397	630	2
3	51132828	631	6
3	51216457	632	2
3	51299979	633	3
3	51383237	634	6
3	51466517	635	5
3	51549776	636	3
3	51633343	637	3
3	51717005	638	1
3	51800772	639	3
3	51884749	640	3
3	51968278	641	1
3	52052100	642	0
3	52135622	643	3
3	52219503	644	6
3	52303417	645	4
3	52387049	646	5
3	52470939	647	0
3	52554397	648	1
3	52637750	649	7
3	52721160	650	2
3	52804471	651	6
3	52887718	652	3
3	52970710	653	6
3	53053846	654	3
3	53137044	655	2
3	53220342	656	1
3	53303694	657	2
3	53387227	658	6
3	53470509	659	2
3	53554000	660	4
3	53637659	661	1
3	53721441	662	2
3	53805635	663	2
3	53889820	664	1
3	53973599	665	6
3	54057136	666	5
3	54140182	667	4
3	54223437	668	3
3	54306845	669	2
3	54390217	670	1
3	54473935	671	0
3	54558098	672	4
3	54641948	673	5
3	54725732	674	2
3	54809378	675	7
3	54892912	676	8
3	54976945	677	3
3	55060941	678	5
3	55144974	679	3
3	55229282	680	3
3	55313146	681	2
3	55396578	682	3
3	55479978	683	4
3	55563097	684	2
3	55646722	685	3
3	55730153	686	0
3	55813562	687	4
3	55897162	688	2
3	55980675	689	3
3	56064389	690	4
3	56148110	691	4
3	56231717	692	4
3	56315161	693	5
3	56398566	694	5
3	56481873	695	1
3	56565406	696	5
3	56648665	697	4
3	56732088	698	3
3	56815862	699	3
3	56899302	700	10
3	56982882	701	2
3	57066701	702	4
3	57150390	703	5
3	57234075	704	2
3	57317783	705	1
3	57401786	706	5
3	57485536	707	1
3	57569332	708	5
3	57652724	709	4
3	57736315	710	2
3	57819986	711	2
3	57903777	712	3
3	57987047	713	0
3	58070402	714	3
3	58154055	715	3
3	58237881	716	6
3	58321619	717	2
3	58405244	718	3
3	58488540	719	6
3	58571803	720	5
3	58655261	721	7
3	58738934	722	2
3	58822705	723	2
3	58906418	724	3
3	58989641	725	3
3	59073051	726	4
3	59156872	727	3
3	59240089	728	2
3	59323057	729	5
3	59405861	730	5
3	59488999	731	3
3	59572159	732	4
3	59655295	733	3
3	59738694	734	2
3	59822390	735	3
3	59905854	736	1
3	59989229	737	4
3	60072714	738	1
3	60156467	739	7
3	60239974	740	1
3	60323537	741	2
3	60407416	742	3
3	60491064	743	2
3	60574575	744	2
3	60658546	745	3
3	60742357	746	7
3	60826062	747	8
3	60909712	748	4
3	60993329	749	5
3	61077114	750	3
3	61160799	751	4
3	61244133	752	8
3	61327647	753	1
3	61411735	754	5
3	61495416	755	3
3	61579152	756	3
3	61662585	757	5
3	61745935	758	4
3	61829238	759	1
3	61912816	760	3
3	61996640	761	6
3	62080114	762	4
3	62163604	763	2
3	62247185	764	5
3	62330545	765	5
3	62414134	766	2
3	62498133	767	3
3	62581770	768	1
3	62665847	769	3
3	62749871	770	3
3	62833293	771	3
3	62917020	772	7
3	63000049	773	3
3	63083002	774	5
3	63166097	775	6
3	63249126	776	5
3	63332497	777	3
3	63416044	778	1
3	63499906	779	2
3	63584072	780	6
3	63668084	781	1
3	63751880	782	1
3	63835415	783	1
3	63918728	784	2
3	64002500	785	3
3	64085947	786	2
3	64169527	787	6
3	64253486	788	1
3	64336769	789	3
3	64419993	790	3
3	64503325	791	7
3	64586513	792	3
3	64669601	793	3
3	64753026	794	3
3	64836529	795	7
3	64919669	796	2
3	65002809	797	2
3	65085947	798	3
3	65169501	799	4
3	65252873	800	3
3	65336084	801	1
3	65419543	802	7
3	65502962	803	7
3	65586031	804	2
3	65668703	805	2
3	65751620	806	3
3	65835012	807	0
3	65918763	808	3
3	66002676	809	2
3	66086812	810	6
3	66170302	811	3
3	66253800	812	4
3	66337458	813	7
3	66421185	814	3
3	66505009	815	1
3	66588804	816	6
3	66672605	817	2
3	66756115	818	3
3	66839699	819	2
3	66923223	820	3
3	67007051	821	3
3	67090590	822	5
3	67174087	823	5
3	67257535	824	5
3	67340772	825	4
3	67424184	826	3
3	67507274	827	3
3	67590657	828	1
3	67674163	829	3
3	67757760	830	7
3	67841773	831	3
3	67925413	832	3
3	68009175	833	2
3	68093175	834	5
3	68177081	835	2
3	68260855	836	5
3	68344796	837	3
3	68428618	838	3
3	68512420	839	6
3	68596625	840	2
3	68680747	841	2
3	68764627	842	8
3	68847852	843	3
3	68931022	844	7
3	69014581	845	5
3	69097905	846	3
3	69181396	847	1
3	69264882	848	1
3	69348423	849	6
3	69431742	850	4
3	69515021	851	4
3	69597928	852	4
3	69681113	853	4
3	69764707	854	3
3	69848265	855	5
3	69931963	856	2
3	70015633	857	5
3	70099085	858	4
3	70182329	859	0
3	70265862	860	4
3	70348895	861	4
3	70432153	862	2
3	70515642	863	5
3	70599339	864	3
3	70683009	865	2
3	70766592	866	6
3	70850232	867	3
3	70933848	868	3
3	71017149	869	5
3	71100906	870	5
3	71184500	871	5
3	71268302	872	2
3	71352004	873	5
3	71435387	874	3
3	71519164	875	3
3	71602558	876	2
3	71685425	877	1
3	71768708	878	2
3	71851888	879	3
3	71935272	880	2
3	72018937	881	3
3	72102358	882	2
3	72185946	883	7
3	72269545	884	2
3	72352752	885	2
3	72436264	886	5
3	72519653	887	1
3	72602972	888	4
3	72686531	889	4
3	72769758	890	2
3	72852930	891	3
3	72936365	892	5
3	73020131	893	2
3	73103690	894	4
3	73187111	895	1
3	73270775	896	0
3	73354271	897	3
3	73438395	898	5
3	73522330	899	3
3	73605849	900	2
3	73689640	901	3
3	73773667	902	5
3	73857730	903	5
3	73941785	904	6
3	74025809	905	4
3	74109567	906	3
3	74193606	907	3
3	74277413	908	5
3	74360715	909	7
3	74444060	910	2
3	74527836	911	4
3	74611794	912	1
3	74695722	913	2
3	74779207	914	5
3	74862835	915	2
3	74946193	916	3
3	75029453	917	2
3	75113582	918	2
3	75197515	919	2
3	75281372	920	1
3	75365123	921	3
3	75448798	922	4
3	75532379	923	1
3	75615890	924	5
3	75699672	925	4
3	75783338	926	1
3	75867427	927	2
3	75951362	928	3
3	76034800	929	3
3	76118276	930	2
3	76201803	931	6
3	76284961	932	3
3	76368237	933	3
3	76451357	934	2
3	76534241	935	3
3	76617589	936	6
3	76700830	937	4
3	76784308	938	1
3	76868109	939	2
3	76951793	940	4
3	77035644	941	1
3	77119396	942	5
3	77203160	943	2
3	77286738	944	1
3	77370284	945	2
3	77453852	946	3
3	77537562	947	4
3	77621120	948	0
3	77704448	949	1
3	77787927	950	4
3	77871498	951	4
3	77954391	952	0
3	78037443	953	2
3	78121114	954	5
3	78205049	955	2
3	78288604	956	4
3	78371863	957	2
3	78455349	958	6
3	78538262	959	4
3	78621630	960	3
3	78705150	961	3
3	78788417	962	6
3	78871700	963	2
3	78955445	964	2
3	79038996	965	3
3	79122387	966	0
3	79205714	967	5
3	79289521	968	5
3	79373312	969	3
3	79456947	970	2
3	79541122	971	2
3	79625019	972	3
3	79708713	973	3
3	79792260	974	1
3	79875671	975	1
3	79959050	976	2
3	80042823	977	5
3	80126415	978	3
3	80210070	979	1
3	80293868	980	5
3	80377732	981	3
3	80461732	982	9
3	80545735	983	6
3	80630022	984	3
3	80713965	985	1
3	80797430	986	6
3	80880766	987	1
3	80964295	988	2
3	81047412	989	0
3	81130596	990	4
3	81213624	991	0
3	81296991	992	3
3	81380607	993	6
3	81464434	994	2
3	81548481	995	5
3	81632534	996	3
3	81716566	997	1
3	81800141	998	5
3	81883463	999	6
4	41769588	519	0.10893413483607
4	41853185	520	0.10870958309983
4	41936585	521	0.10849439721417
4	42019813	522	0.10826902543195
4	42102807	523	0.10804864374619
4	42185939	524	0.10783814911542
4	42269481	525	0.10763055018461
4	42353012	526	0.10741948143565
4	42436354	527	0.10719764727648
4	42519465	528	0.10697736871951
4	42602661	529	0.10677408971412
4	42686359	530	0.1065626727907
4	42770231	531	0.10635057036305