version 2
run QLearnCC-2-20100909-15:00:14-4176
attr configname QLearnCC
attr datetime 20100909-15:00:14
attr delay 500ms
attr experiment QLearnCC
attr inifile D:/Developement/Oversim2/multic/simulations/omnetpp.ini
attr iterationvars $delay=500ms
attr iterationvars2 "$delay=500ms, $repetition=0"
attr measurement $delay=500ms
attr network oversim.underlay.simpleunderlay.SimpleUnderlayNetwork
attr processid 4176
attr repetition 0
attr replication #0
attr resultdir results
attr runnumber 2
attr seedset 2

vector 1  SimpleUnderlayNetwork.globalObserver.globalStatistics  incoming_bytes  ETV
vector 2  SimpleUnderlayNetwork.globalObserver.globalStatistics  drops  ETV
vector 3  SimpleUnderlayNetwork.globalObserver.globalStatistics  delayed_acks  ETV
vector 4  SimpleUnderlayNetwork.globalObserver.globalStatistics  timetotimeouts  ETV
vector 5  SimpleUnderlayNetwork.globalObserver.globalStatistics  9rateOf1To0  ETV
vector 6  SimpleUnderlayNetwork.globalObserver.globalStatistics  max9RateOf1To0  ETV
vector 7  SimpleUnderlayNetwork.globalObserver.globalStatistics  9rateOf1To1  ETV
vector 8  SimpleUnderlayNetwork.globalObserver.globalStatistics  max9RateOf1To1  ETV
vector 9  SimpleUnderlayNetwork.globalObserver.globalStatistics  9rateOf1To2  ETV
vector 10  SimpleUnderlayNetwork.globalObserver.globalStatistics  max9RateOf1To2  ETV
vector 11  SimpleUnderlayNetwork.globalObserver.globalStatistics  9rateOf1To3  ETV
vector 12  SimpleUnderlayNetwork.globalObserver.globalStatistics  max9RateOf1To3  ETV
vector 13  SimpleUnderlayNetwork.globalObserver.globalStatistics  9rateOf1To4  ETV
vector 14  SimpleUnderlayNetwork.globalObserver.globalStatistics  max9RateOf1To4  ETV
vector 15  SimpleUnderlayNetwork.globalObserver.globalStatistics  9rateOf1To5  ETV
vector 16  SimpleUnderlayNetwork.globalObserver.globalStatistics  max9RateOf1To5  ETV
vector 17  SimpleUnderlayNetwork.globalObserver.globalStatistics  9rateOf1To6  ETV
vector 18  SimpleUnderlayNetwork.globalObserver.globalStatistics  max9RateOf1To6  ETV
vector 19  SimpleUnderlayNetwork.globalObserver.globalStatistics  9rateOf1To7  ETV
vector 20  SimpleUnderlayNetwork.globalObserver.globalStatistics  max9RateOf1To7  ETV
vector 21  SimpleUnderlayNetwork.globalObserver.globalStatistics  9rateOf1To8  ETV
vector 22  SimpleUnderlayNetwork.globalObserver.globalStatistics  max9RateOf1To8  ETV
vector 23  SimpleUnderlayNetwork.globalObserver.globalStatistics  9rateOf1To9  ETV
vector 24  SimpleUnderlayNetwork.globalObserver.globalStatistics  max9RateOf1To9  ETV
vector 25  SimpleUnderlayNetwork.globalObserver.globalStatistics  1rate  ETV
vector 26  SimpleUnderlayNetwork.globalObserver.globalStatistics  max2Rate  ETV
vector 27  SimpleUnderlayNetwork.globalObserver.globalStatistics  "GlobalNodeList: Number of nodes"  ETV
vector 28  SimpleUnderlayNetwork.globalObserver.globalStatistics  "GlobalNodeList: Number of bootstrapped malicious nodes"  ETV
1	239415135	6018	84800
1	239459096	6019	85224
1	239503040	6020	85542
1	239547220	6021	85277
1	239591200	6022	84800
1	239635125	6023	84694
1	239679162	6024	85489
1	239723241	6025	85171
1	239767034	6026	83793
1	239810824	6027	84747
1	239854720	6028	84959
1	239898656	6029	84164
1	239942628	6030	85807
1	239986650	6031	85118
1	240030507	6032	84217
1	240074624	6033	85277
1	240118518	6034	84323
1	240162319	6035	84323
1	240206292	6036	84588
1	240250412	6037	86867
1	240294589	6038	85807
1	240339036	6039	86178
1	240383201	6040	84694
1	240427321	6041	83952
1	240471496	6042	86284
1	240515540	6043	85542
1	240559732	6044	85595
1	240603806	6045	84853
1	240647790	6046	84800
1	240691889	6047	84853
1	240736077	6048	86390
1	240780380	6049	85754
1	240824406	6050	84429
1	240868354	6051	84482
1	240912391	6052	85436
1	240956340	6053	83634
1	241000360	6054	86178
1	241044383	6055	84376
1	241088528	6056	86125
1	241132584	6057	85277
1	241176617	6058	85330
1	241220694	6059	84906
1	241264812	6060	84694
1	241308832	6061	86443
1	241352832	6062	84376
1	241396874	6063	85171
1	241440942	6064	84217
1	241484887	6065	86019
1	241528874	6066	85118
1	241572978	6067	85489
1	241616896	6068	83899
1	241660835	6069	84694
1	241704728	6070	84959
1	241748833	6071	84270
1	241793015	6072	86496
1	241837205	6073	86284
1	241881222	6074	84164
1	241925444	6075	85542
1	241969607	6076	85542
1	242013698	6077	85807
1	242057452	6078	83581
1	242101483	6079	85118
1	242145513	6080	85913
1	242189787	6081	84482
1	242233940	6082	85807
1	242278168	6083	85701
1	242322470	6084	86231
1	242366644	6085	84111
1	242410780	6086	86708
1	242454932	6087	84906
1	242499043	6088	84747
1	242543264	6089	86284
1	242587432	6090	85436
1	242631688	6091	85436
1	242675727	6092	84323
1	242719916	6093	86443
1	242764343	6094	85807
1	242808486	6095	85966
1	242852913	6096	85436
1	242897349	6097	85330
1	242941398	6098	85754
1	242985468	6099	84482
1	243029406	6100	84164
1	243073398	6101	86178
1	243117487	6102	84429
1	243161630	6103	85330
1	243205843	6104	86019
1	243249976	6105	84323
1	243294110	6106	85966
1	243338361	6107	85595
1	243382495	6108	83369
1	243426635	6109	86019
1	243470754	6110	84959
1	243515086	6111	85966
1	243559128	6112	84641
1	243603443	6113	85224
1	243647670	6114	85595
1	243691990	6115	86655
1	243736269	6116	84535
1	243780663	6117	85542
1	243825121	6118	85913
1	243869538	6119	87768
1	243914124	6120	85383
1	243958531	6121	85065
1	244002881	6122	86019
1	244047231	6123	85171
1	244091359	6124	85118
1	244135673	6125	86125
1	244180008	6126	85648
1	244224672	6127	85595
1	244269217	6128	86814
1	244313595	6129	86019
1	244358021	6130	84588
1	244402557	6131	86390
1	244447144	6132	87344
1	244491720	6133	85754
1	244536271	6134	85012
1	244580589	6135	86178
1	244625297	6136	86231
1	244669841	6137	86337
1	244714323	6138	85330
1	244758733	6139	85224
1	244803150	6140	86443
1	244847578	6141	85118
1	244891909	6142	85754
1	244936164	6143	85436
1	244980331	6144	85118
1	245024333	6145	84959
1	245068656	6146	85966
1	245113174	6147	86178
1	245157638	6148	86337
1	245201961	6149	84694
1	245246183	6150	85224
1	245290361	6151	85542
1	245334803	6152	85913
1	245378893	6153	85065
1	245422884	6154	84906
1	245466959	6155	84482
1	245510981	6156	84482
1	245555048	6157	86072
1	245599452	6158	85966
1	245643723	6159	84641
1	245688077	6160	85913
1	245732548	6161	86602
1	245777164	6162	86549
1	245821737	6163	85648
1	245866425	6164	86708
1	245910715	6165	85754
1	245955063	6166	85065
1	245999494	6167	86178
1	246043887	6168	85118
1	246088417	6169	86973
1	246132948	6170	86178
1	246177151	6171	85754
1	246221643	6172	85436
1	246265935	6173	85648
1	246310054	6174	85065
1	246354464	6175	86284
1	246398872	6176	85542
1	246443186	6177	86708
1	246487668	6178	84694
1	246532310	6179	87450
1	246576770	6180	85489
1	246621177	6181	85224
1	246665467	6182	85224
1	246709655	6183	85224
1	246754060	6184	85807
1	246798656	6185	86814
1	246843203	6186	86973
1	246887907	6187	84694
1	246932374	6188	85648
1	246976701	6189	85330
1	247021245	6190	85754
1	247065511	6191	84429
1	247110140	6192	87344
1	247154516	6193	85065
1	247198922	6194	86231
1	247243231	6195	84800
1	247287783	6196	86443
1	247332244	6197	85913
1	247376874	6198	86178
1	247421468	6199	86231
1	247465834	6200	84959
1	247510495	6201	86549
1	247554817	6202	86178
1	247599271	6203	84853
1	247643634	6204	85966
1	247688062	6205	86072
1	247732562	6206	85860
1	247776999	6207	85542
1	247821430	6208	86390
1	247865669	6209	83581
1	247910066	6210	86814
1	247954235	6211	85277
1	247998663	6212	84853
1	248043055	6213	85542
1	248087461	6214	87662
1	248132141	6215	85065
1	248176653	6216	85913
1	248221351	6217	85860
1	248265728	6218	85489
1	248310135	6219	86496
1	248354606	6220	85383
1	248399095	6221	85754
1	248443630	6222	85330
1	248488169	6223	86231
1	248532537	6224	85224
1	248576965	6225	85913
1	248621345	6226	86019
1	248665696	6227	84482
1	248710166	6228	85701
1	248754453	6229	85860
1	248798643	6230	84535
1	248842891	6231	84535
1	248886958	6232	84641
1	248931217	6233	86019
1	248975554	6234	85171
1	249020026	6235	86549
1	249064211	6236	84217
1	249108290	6237	85383
1	249152525	6238	84588
1	249196702	6239	85754
1	249240896	6240	84429
1	249284890	6241	84217
1	249329082	6242	84800
1	249373191	6243	85065
1	249417670	6244	86655
1	249462018	6245	84429
1	249506377	6246	85436
1	249550722	6247	85595
1	249595131	6248	85754
1	249639333	6249	85171
1	249683373	6250	83475
1	249727376	6251	84535
1	249771462	6252	85065
1	249815989	6253	86761
1	249860309	6254	83687
1	249904718	6255	85913
1	249949006	6256	85012
1	249993384	6257	84800
1	250037598	6258	85436
1	250082038	6259	86284
1	250126432	6260	85277
1	250170654	6261	85542
1	250215078	6262	84694
1	250258974	6263	85913
1	250303071	6264	83687
1	250346985	6265	83581
1	250390946	6266	85542
1	250434985	6267	84800
1	250479177	6268	84588
1	250523163	6269	85330
1	250567000	6270	82733
1	250611147	6271	85913
1	250655031	6272	84323
1	250698973	6273	83210
1	250742869	6274	84800
1	250786942	6275	86125
1	250831095	6276	83316
1	250875163	6277	85754
1	250919280	6278	83793
1	250963303	6279	85330
1	251007445	6280	85860
1	251051523	6281	83952
1	251095525	6282	85436
1	251139513	6283	83210
1	251183368	6284	85542
1	251227149	6285	84217
1	251271215	6286	85118
1	251315256	6287	85065
1	251359441	6288	85330
1	251403292	6289	84535
1	251447158	6290	83581
1	251491193	6291	86072
1	251535080	6292	84694
1	251578828	6293	83104
1	251622629	6294	84005
1	251666483	6295	85277
1	251710692	6296	85754
1	251754983	6297	84959
1	251799208	6298	85595
1	251843346	6299	84800
1	251887540	6300	85595
1	251931667	6301	85595
1	251975743	6302	84535
1	252019926	6303	85436
1	252064079	6304	85648
1	252108336	6305	84694
1	252152527	6306	85065
1	252196755	6307	86708
1	252241065	6308	85330
1	252285567	6309	86390
1	252329738	6310	85065
1	252374009	6311	85648
1	252418315	6312	85595
1	252462237	6313	85224
1	252506281	6314	83634
1	252550406	6315	85542
1	252594690	6316	86178
1	252638856	6317	85277
1	252683041	6318	84535
1	252727314	6319	86337
1	252771459	6320	84800
1	252815545	6321	85224
1	252859729	6322	84906
1	252904023	6323	85860
1	252948138	6324	85224
1	252992153	6325	83952
1	253036376	6326	85860
1	253080388	6327	84164
1	253124494	6328	85648
1	253168765	6329	85966
1	253213156	6330	85542
1	253257624	6331	85754
1	253301827	6332	85118
1	253345937	6333	84535
1	253390326	6334	86125
1	253434692	6335	86284
1	253479070	6336	84588
1	253523532	6337	86178
1	253567854	6338	85489
1	253612338	6339	85754
1	253656704	6340	85860
1	253701285	6341	86178
1	253745979	6342	86655
1	253790489	6343	85913
1	253834852	6344	85330
1	253879214	6345	85118
1	253923672	6346	85171
1	253967973	6347	85913
1	254012151	6348	85012
1	254056537	6349	85224
1	254101020	6350	86390
1	254145539	6351	85913
1	254190227	6352	87397
1	254234717	6353	85595
1	254279493	6354	86231
1	254324212	6355	85754
1	254368731	6356	86655
1	254413111	6357	85065
1	254457676	6358	85065
1	254502173	6359	85913
1	254546453	6360	85648
1	254591047	6361	85648
1	254635234	6362	84694
1	254679723	6363	85542
1	254724203	6364	86973
1	254768601	6365	84111
1	254813078	6366	86072
1	254857661	6367	87344
1	254902263	6368	86231
1	254946626	6369	85648
1	254990907	6370	84270
1	255034968	6371	84800
1	255079198	6372	86496
1	255123510	6373	83740
1	255167767	6374	85489
1	255212120	6375	85277
1	255256553	6376	87556
1	255300942	6377	85860
1	255345129	6378	84641
1	255389271	6379	84694
1	255433310	6380	85754
1	255477598	6381	85171
1	255521737	6382	84164
1	255565884	6383	85065
1	255609867	6384	85330
1	255654270	6385	86284
1	255698469	6386	85171
1	255742554	6387	84588
1	255786641	6388	84694
1	255830772	6389	85065
1	255874977	6390	85277
1	255919089	6391	85913
1	255963076	6392	83687
1	256007036	6393	84376
1	256050808	6394	84111
1	256094777	6395	84323
1	256138898	6396	86814
1	256182964	6397	84270
1	256226794	6398	83846
1	256270751	6399	84482
1	256314744	6400	84747
1	256359049	6401	84694
1	256403268	6402	86284
1	256447686	6403	85330
1	256491868	6404	85224
1	256535991	6405	84429
1	256580084	6406	85436
1	256624210	6407	85277
1	256668457	6408	85436
1	256712557	6409	85595
1	256756836	6410	84800
1	256801037	6411	86019
1	256845231	6412	84641
1	256889306	6413	85330
1	256933436	6414	85436
1	256977749	6415	85277
1	257021646	6416	83846
1	257065805	6417	85118
1	257109977	6418	86284
1	257154105	6419	85595
1	257198362	6420	84111
1	257242373	6421	84800
1	257286567	6422	85542
1	257330646	6423	85648
1	257374772	6424	85171
1	257418677	6425	84376
1	257462659	6426	85118
1	257506526	6427	83793
1	257550642	6428	85595
1	257594691	6429	84906
1	257639018	6430	86496
1	257683021	6431	85065
1	257726922	6432	82362
1	257771043	6433	86019
1	257815201	6434	85065
1	257859083	6435	84641
1	257902957	6436	82892
1	257946821	6437	86337
1	257990657	6438	83263
1	258034658	6439	84853
1	258078683	6440	85701
1	258122823	6441	85542
1	258166992	6442	84588
1	258211172	6443	85966
1	258255271	6444	84111
1	258299040	6445	83899
1	258343064	6446	85012
1	258386914	6447	84800
1	258430976	6448	85065
1	258475213	6449	85648
1	258519452	6450	84641
1	258563429	6451	83740
1	258607529	6452	86178
1	258651821	6453	85436
1	258696204	6454	84800
1	258740371	6455	86390
1	258784882	6456	86178
1	258828925	6457	84111
1	258872920	6458	83846
1	258916991	6459	85913
1	258961152	6460	84853
1	259005243	6461	84853
1	259049435	6462	85383
1	259093634	6463	85595
1	259137821	6464	84323
1	259182033	6465	86443
1	259226185	6466	84641
1	259270446	6467	84376
1	259314666	6468	86072
1	259358921	6469	85118
1	259403299	6470	85489
1	259447427	6471	84853
1	259491511	6472	84111
1	259535660	6473	86178
1	259579843	6474	84535
1	259624251	6475	86019
1	259668572	6476	85648
1	259712839	6477	85277
1	259756988	6478	85966
1	259801179	6479	84535
1	259845383	6480	84906
1	259889579	6481	85489
1	259934298	6482	86337
1	259978909	6483	85277
1	260023280	6484	85860
1	260067840	6485	86602
1	260112120	6486	84694
1	260156263	6487	84058
1	260200588	6488	87079
1	260244832	6489	84429
1	260288881	6490	83793
1	260333130	6491	86337
1	260377155	6492	84959
1	260421214	6493	84376
1	260465341	6494	84959
1	260509588	6495	85436
1	260553764	6496	85648
1	260597860	6497	84535
1	260641817	6498	86125
1	260685647	6499	82309
1	260729904	6500	86390
1	260774073	6501	86019
1	260818252	6502	84111
1	260862399	6503	85118
1	260906498	6504	85913
1	260950652	6505	84323
1	260994724	6506	86072
1	261038737	6507	84376
1	261082904	6508	85383
1	261126860	6509	83952
1	261170933	6510	85913
1	261215171	6511	84906
1	261259627	6512	85701
1	261303919	6513	85595
1	261348099	6514	84429
1	261392170	6515	84641
1	261436203	6516	85701
1	261480271	6517	84694
1	261524179	6518	84058
1	261568225	6519	85224
1	261612231	6520	84906
1	261656187	6521	85065
1	261700068	6522	83581
1	261744076	6523	85807
1	261788045	6524	84959
1	261832027	6525	83899
1	261876001	6526	86178
1	261920425	6527	85489
1	261964482	6528	85118
1	262008665	6529	85383
1	262052884	6530	84747
1	262096862	6531	84164
1	262140807	6532	85436
1	262184830	6533	85171
1	262229008	6534	85224
1	262273046	6535	84588
1	262316866	6536	84747
1	262361113	6537	86337
1	262405068	6538	84535
1	262449038	6539	83634
1	262492842	6540	85807
1	262536624	6541	84005
1	262580560	6542	84853
1	262624510	6543	84005
1	262668298	6544	84906
1	262712100	6545	84641
1	262755927	6546	84217
1	262799896	6547	85224
1	262843646	6548	84270
1	262887767	6549	85171
1	262931759	6550	85330
1	262975881	6551	84641
1	263019908	6552	85489
1	263063745	6553	85118
1	263107663	6554	84058
1	263151775	6555	85701
1	263195725	6556	84747
1	263239629	6557	84323
1	263283452	6558	85065
1	263327599	6559	85330
1	263371702	6560	85012
1	263415623	6561	84535
1	263459326	6562	84323
1	263503608	6563	85754
1	263547602	6564	85118
1	263591493	6565	84694
1	263635318	6566	83899
1	263679201	6567	84906
1	263723022	6568	83899
1	263766811	6569	85436
1	263810859	6570	84323
1	263854821	6571	84959
1	263898706	6572	84800
1	263942579	6573	84694
1	263986552	6574	85913
1	264030582	6575	85277
1	264074629	6576	84270
1	264118678	6577	85542
1	264162358	6578	83528
1	264206346	6579	85436
1	264250549	6580	85913
1	264294558	6581	85224
1	264338663	6582	84747
1	264382757	6583	85383
1	264427020	6584	85648
1	264471271	6585	85648
1	264515321	6586	84906
1	264559448	6587	83475
1	264603593	6588	85754
1	264647573	6589	85330
1	264691571	6590	85171
1	264735802	6591	85436
1	264779919	6592	85330
1	264824116	6593	85489
1	264868101	6594	84694
1	264912156	6595	84482
1	264956118	6596	83740
1	265000072	6597	87238
1	265043927	6598	82998
1	265087884	6599	85224
1	265131685	6600	84270
1	265175666	6601	86390
1	265219861	6602	84429
1	265264157	6603	85754
1	265308195	6604	84906
1	265352328	6605	85595
1	265396526	6606	85330
1	265440824	6607	85436
1	265485083	6608	85701
1	265529244	6609	85436
1	265573182	6610	83899
1	265617089	6611	85118
1	265661004	6612	84588
1	265704902	6613	86019
1	265748983	6614	84058
1	265793086	6615	85436
1	265836955	6616	84270
1	265880935	6617	84800
1	265924976	6618	85807
1	265968685	6619	83793
1	266012539	6620	84111
1	266056300	6621	83793
1	266100130	6622	85277
1	266144019	6623	84853
1	266187961	6624	85277
1	266231878	6625	85489
1	266275822	6626	84747
1	266319912	6627	84853
1	266363879	6628	85489
1	266407462	6629	82945
1	266450981	6630	84323
1	266494763	6631	83846
1	266538360	6632	85171
1	266582107	6633	83952
1	266625777	6634	83846
1	266669438	6635	84853
1	266713193	6636	84376
1	266757046	6637	84323
1	266800782	6638	84535
1	266844693	6639	84747
1	266888594	6640	85542
1	266932589	6641	84588
1	266976423	6642	83952
1	267020140	6643	85489
1	267064166	6644	85860
1	267108123	6645	83634
1	267152244	6646	86602
1	267196213	6647	84323
1	267240199	6648	84588
1	267284141	6649	85330
1	267327786	6650	84641
1	267371703	6651	84058
1	267415502	6652	85012
1	267459347	6653	84641
1	267503075	6654	83581
1	267547053	6655	85224
1	267590826	6656	84694
1	267634525	6657	83634
1	267678192	6658	83899
1	267722031	6659	85913
1	267765932	6660	84482
1	267810134	6661	84959
1	267854115	6662	85065
1	267898011	6663	84853
1	267941821	6664	84376
1	267985290	6665	82627
1	268028752	6666	82839
1	268072355	6667	85224
1	268116117	6668	84429
1	268160002	6669	84694
1	268203765	6670	84217
1	268247710	6671	84853
1	268291574	6672	85542
1	268335137	6673	84270
1	268378689	6674	82839
1	268422247	6675	84376
1	268465810	6676	83581
1	268509733	6677	85012
1	268553377	6678	84323
1	268597102	6679	84747
1	268640552	6680	83157
1	268684182	6681	84270
1	268727756	6682	83899
1	268771588	6683	84482
1	268815480	6684	85224
1	268859366	6685	85807
1	268903355	6686	84906
1	268947241	6687	84959
1	268991074	6688	84694
1	269034824	6689	83316
1	269078691	6690	84906
1	269122542	6691	86072
1	269166464	6692	84323
1	269210375	6693	84323
1	269254020	6694	83793
1	269297870	6695	84959
1	269341806	6696	85383
1	269385794	6697	84641
1	269429661	6698	84694
1	269473372	6699	84429
1	269517191	6700	84429
1	269560990	6701	84853
1	269604876	6702	84535
1	269648413	6703	83687
1	269691997	6704	83104
1	269735780	6705	86072
1	269779693	6706	84005
1	269823336	6707	84959
1	269867044	6708	82839
1	269910686	6709	85542
1	269954282	6710	84482
1	269998035	6711	83051
1	270041986	6712	85436
1	270085776	6713	84164
1	270129615	6714	84217
1	270173495	6715	85754
1	270217481	6716	84588
1	270261488	6717	85807
1	270305409	6718	84270
1	270349004	6719	82998
1	270392535	6720	83846
1	270436199	6721	84217
1	270480041	6722	85595
1	270523772	6723	84694
1	270567649	6724	83740
1	270611405	6725	84482
1	270654825	6726	83740
1	270698263	6727	84058
1	270741917	6728	84323
1	270785527	6729	84005
1	270829162	6730	83952
1	270872958	6731	83687
1	270916888	6732	86602
1	270960708	6733	84694
1	271004450	6734	83475
1	271048166	6735	84535
1	271091940	6736	84853
1	271135792	6737	84376
1	271179622	6738	84959
1	271223640	6739	84217
1	271267745	6740	85383
1	271311607	6741	85224
1	271355568	6742	83846
1	271399257	6743	85065
1	271443101	6744	84641
1	271486968	6745	84376
1	271530744	6746	83952
1	271574572	6747	85383
1	271618322	6748	85065
1	271661965	6749	83369
1	271705476	6750	82733
1	271748777	6751	83952
1	271792451	6752	85330
1	271836168	6753	84323
1	271879985	6754	84588
1	271923737	6755	84694
1	271967542	6756	83475
1	272011156	6757	84641
1	272054678	6758	83740
1	272098297	6759	84694
1	272141741	6760	83422
1	272185270	6761	83528
1	272228962	6762	84906
1	272272787	6763	84376
1	272316601	6764	85065
1	272360260	6765	84164
1	272404115	6766	84641
1	272448020	6767	85224
1	272491769	6768	84535
1	272535443	6769	84270
1	272579127	6770	83581
1	272622620	6771	84005
1	272666245	6772	84694
1	272709806	6773	84005
1	272753704	6774	85542
1	272797524	6775	84164
1	272841353	6776	85065
1	272885129	6777	83846
1	272928943	6778	84641
1	272972415	6779	84005
1	273016149	6780	83740
1	273059866	6781	85860
1	273103625	6782	84482
1	273147583	6783	84482
1	273191356	6784	84270
1	273235143	6785	86072
1	273279034	6786	84800
1	273322988	6787	84800
1	273366597	6788	83316
1	273410157	6789	85489
1	273453957	6790	83634
1	273497689	6791	84641
1	273541189	6792	83475
1	273584568	6793	83528
1	273627954	6794	84429
1	273671743	6795	84429
1	273715270	6796	83581
1	273758786	6797	84270
1	273802416	6798	83952
1	273846146	6799	85913
1	273889998	6800	84482
1	273933685	6801	83687
1	273977405	6802	85489
1	274021077	6803	84376
1	274064672	6804	83846
1	274108362	6805	85065
1	274151999	6806	83581
1	274195618	6807	84376
1	274239528	6808	85118
1	274283226	6809	84429
1	274326950	6810	84747
1	274370575	6811	83952
1	274414174	6812	83369
1	274457852	6813	85383
1	274501360	6814	83263
1	274544874	6815	83899
1	274588432	6816	83846
1	274632124	6817	84853
1	274676078	6818	85807
1	274719704	6819	84164
1	274763176	6820	83210
1	274806714	6821	83634
1	274850294	6822	84323
1	274893998	6823	85595
1	274937760	6824	83687
1	274981242	6825	83528
1	275024479	6826	81885
1	275067947	6827	85065
1	275111430	6828	84005
1	275154911	6829	84164
1	275198400	6830	83051
1	275241658	6831	82945
1	275285323	6832	86019
1	275329292	6833	85330
1	275372899	6834	83528
1	275416401	6835	84111
1	275459698	6836	82839
1	275503243	6837	85701
1	275546815	6838	83316
1	275590435	6839	84270
1	275634125	6840	83369
1	275677418	6841	85171
1	275721130	6842	84853
1	275764926	6843	83528
1	275808749	6844	85436
1	275852598	6845	84323
1	275896434	6846	85489
1	275940113	6847	84323
1	275984059	6848	84482
1	276027788	6849	84535
1	276071496	6850	83952
1	276115104	6851	85012
1	276158702	6852	84270
1	276202330	6853	83475
1	276245698	6854	83740
1	276289303	6855	84959
1	276332902	6856	82998
1	276376347	6857	84429
1	276419612	6858	82468
1	276463052	6859	84429
1	276506659	6860	84323
1	276550292	6861	84694
1	276593870	6862	83104
1	276637280	6863	83422
1	276680588	6864	83422
1	276724344	6865	85171
1	276767821	6866	83210
1	276811348	6867	83846
1	276855126	6868	85171
1	276898730	6869	84429
1	276942163	6870	82574
1	276985630	6871	83846
1	277029232	6872	85118
1	277072695	6873	83263
1	277116168	6874	83210
1	277159589	6875	83846
1	277203052	6876	83581
1	277246666	6877	85489
1	277290201	6878	84376
1	277333776	6879	83634
1	277377381	6880	82839
1	277420609	6881	83422
1	277463999	6882	84058
1	277507443	6883	83475
1	277550870	6884	83581
1	277594175	6885	83528
1	277637707	6886	84376
1	277681330	6887	83634
1	277725034	6888	84694
1	277768545	6889	84217
1	277812034	6890	83210
1	277855443	6891	84376
1	277898676	6892	82256
1	277942021	6893	83157
1	277985442	6894	84694
1	278028866	6895	84111
1	278072547	6896	85065
1	278116130	6897	82892
1	278159626	6898	84906
1	278203210	6899	83157
1	278246754	6900	84482
1	278290300	6901	84588
1	278333945	6902	84588
1	278377699	6903	84323
1	278421248	6904	84058
1	278464338	6905	82733
1	278507552	6906	83263
1	278550758	6907	83316
1	278593994	6908	82733
1	278637057	6909	83581
1	278680285	6910	82839
1	278723450	6911	83899
1	278766668	6912	83899
1	278809891	6913	82945
1	278853047	6914	82839
1	278896292	6915	83528
1	278939641	6916	83422
1	278982997	6917	85065
1	279026196	6918	81991
1	279069516	6919	83104
1	279113027	6920	85436
1	279156256	6921	83263
1	279199617	6922	83104
1	279243121	6923	84482
1	279286657	6924	84111
1	279329964	6925	83475
1	279373399	6926	83528
1	279416840	6927	83846
1	279460239	6928	84270
1	279503657	6929	83369
1	279546981	6930	84323
1	279590256	6931	82839
1	279633414	6932	83157
1	279676279	6933	81991
1	279719414	6934	84058
1	279762346	6935	82044
1	279805492	6936	83157
1	279848667	6937	84164
1	279891992	6938	83475
1	279935480	6939	84323
1	279978733	6940	83157
1	280022176	6941	84535
1	280065438	6942	83369
1	280108606	6943	82627
1	280151483	6944	82627
1	280194568	6945	83210
1	280237778	6946	83316
1	280280910	6947	82627
1	280324103	6948	83634
1	280367166	6949	83793
1	280410433	6950	82627
1	280453595	6951	83899
1	280496784	6952	82627
1	280539988	6953	83740
1	280583184	6954	83210
1	280626730	6955	83899
1	280669938	6956	82998
1	280713061	6957	82733
1	280756017	6958	82945
1	280799251	6959	83316
1	280842569	6960	82203
1	280885780	6961	84482
1	280929055	6962	83475
1	280972332	6963	82733
1	281015555	6964	82892
1	281059055	6965	84429
1	281102300	6966	83475
1	281145896	6967	85224
1	281189285	6968	83104
1	281232690	6969	83316
1	281276076	6970	83899
1	281319217	6971	83051
1	281362417	6972	81673
1	281405503	6973	84747
1	281448868	6974	83793
1	281492230	6975	83422
1	281535406	6976	82415
1	281578563	6977	83475
1	281621631	6978	82680
1	281664974	6979	84005
1	281708026	6980	81991
1	281751339	6981	83210
1	281794407	6982	84164
1	281837582	6983	82627
1	281880716	6984	82627
1	281923934	6985	83687
1	281967031	6986	82839
1	282010203	6987	83157
1	282053227	6988	82574
1	282096312	6989	84005
1	282139454	6990	82150
1	282182772	6991	83634
1	282225815	6992	83475
1	282269006	6993	82521
1	282312031	6994	82309
1	282354928	6995	83528
1	282398003	6996	82415
1	282441148	6997	82203
1	282484439	6998	84641
1	282527929	6999	84641
1	282571342	7000	83793
1	282614466	7001	82998
1	282657426	7002	82468
1	282700228	7003	82892
1	282743083	7004	81567
1	282786012	7005	83263
1	282828943	7006	82786
1	282871983	7007	82892
1	282915112	7008	83687
1	282958171	7009	82680
1	283001371	7010	82627
1	283044496	7011	84270
1	283087458	7012	82256
1	283130488	7013	81779
1	283173433	7014	83687
1	283216508	7015	83104
1	283259701	7016	84800
1	283303012	7017	83740
1	283346119	7018	82203
1	283389142	7019	83475
1	283432083	7020	82892
1	283475297	7021	84376
1	283518395	7022	82892
1	283561552	7023	82680
1	283604711	7024	83528
1	283647819	7025	83369
1	283690744	7026	81461
1	283733745	7027	82945
1	283776924	7028	84535
1	283820111	7029	82733
1	283863242	7030	83634
1	283906349	7031	82733
1	283949425	7032	83899
1	283992436	7033	82733
1	284035528	7034	83263
1	284078381	7035	82627
1	284121417	7036	84058
1	284164223	7037	81249
1	284207229	7038	81938
1	284250242	7039	84588
1	284293140	7040	82521
1	284336074	7041	82945
1	284378695	7042	81037
1	284421534	7043	82044
1	284464378	7044	84376
1	284507255	7045	81991
1	284550180	7046	82309
1	284593013	7047	82892
1	284635976	7048	83952
1	284678773	7049	81514
1	284721667	7050	82733
1	284764438	7051	83634
1	284807152	7052	81090
1	284849874	7053	82256
1	284892656	7054	82892
1	284935338	7055	82574
1	284977833	7056	80931
1	285020638	7057	83210
1	285063486	7058	81938
1	285106330	7059	83051
1	285149049	7060	82203
1	285191820	7061	82786
1	285234601	7062	81779
1	285277519	7063	82786
1	285320518	7064	83952
1	285363293	7065	82574
1	285405993	7066	81832
1	285448562	7067	81037
1	285491448	7068	83581
1	285534248	7069	83316
1	285577204	7070	82892
1	285620291	7071	83210
1	285663237	7072	83051
1	285706125	7073	81567
1	285748831	7074	83422
1	285791749	7075	83051
1	285834607	7076	82998
1	285877404	7077	81779
1	285920456	7078	84058
1	285963418	7079	82415
1	286006207	7080	82468
1	286048959	7081	83634
1	286091629	7082	81355
1	286134709	7083	83687
1	286177602	7084	82309
1	286220430	7085	83952
1	286263267	7086	81567
1	286306057	7087	83528
1	286348878	7088	81885
1	286391508	7089	81991
1	286434275	7090	82521
1	286477038	7091	82521
1	286519715	7092	82309
1	286562531	7093	82945
1	286605201	7094	82044
1	286647930	7095	83104
1	286690644	7096	81620
1	286733337	7097	82574
1	286776023	7098	82044
1	286818550	7099	80984
1	286861112	7100	84270
1	286903853	7101	81779
1	286946830	7102	82521
1	286989384	7103	83104
1	287032041	7104	81779
1	287074520	7105	81196
1	287117169	7106	82733
1	287159810	7107	82150
1	287202498	7108	83316
1	287244869	7109	81461
1	287287315	7110	80825
1	287329805	7111	81143
1	287372348	7112	83475
1	287415050	7113	82521
1	287457702	7114	82415
1	287500319	7115	82203
1	287542794	7116	81779
1	287585416	7117	82044
1	287627830	7118	82468
1	287670452	7119	80825
1	287713010	7120	83263
1	287755595	7121	81037
1	287798095	7122	81991
1	287840874	7123	82574
1	287883513	7124	83528
1	287926102	7125	81143
1	287968834	7126	82203
1	288011415	7127	82309
1	288054069	7128	82468
1	288096591	7129	82362
1	288139205	7130	81461
1	288181988	7131	81567
1	288224738	7132	84270
1	288267424	7133	82680
1	288309993	7134	80984
1	288352501	7135	82097
1	288394854	7136	80454
1	288437443	7137	82892
1	288480059	7138	82733
1	288522851	7139	81938
1	288565468	7140	82892
1	288607904	7141	80984
1	288650427	7142	82839
1	288693052	7143	82203