version 2
run QLearnCC-0-20100909-14:20:26-3292
attr configname QLearnCC
attr datetime 20100909-14:20:26
attr delay 50ms
attr experiment QLearnCC
attr inifile D:/Developement/Oversim2/multic/simulations/omnetpp.ini
attr iterationvars $delay=50ms
attr iterationvars2 "$delay=50ms, $repetition=0"
attr measurement $delay=50ms
attr network oversim.underlay.simpleunderlay.SimpleUnderlayNetwork
attr processid 3292
attr repetition 0
attr replication #0
attr resultdir results
attr runnumber 0
attr seedset 0

vector 1  SimpleUnderlayNetwork.globalObserver.globalStatistics  incoming_bytes  ETV
vector 2  SimpleUnderlayNetwork.globalObserver.globalStatistics  drops  ETV
vector 3  SimpleUnderlayNetwork.globalObserver.globalStatistics  delayed_acks  ETV
vector 4  SimpleUnderlayNetwork.globalObserver.globalStatistics  timetotimeouts  ETV
vector 5  SimpleUnderlayNetwork.globalObserver.globalStatistics  9rateOf1To0  ETV
vector 6  SimpleUnderlayNetwork.globalObserver.globalStatistics  max9RateOf1To0  ETV
vector 7  SimpleUnderlayNetwork.globalObserver.globalStatistics  9rateOf1To1  ETV
vector 8  SimpleUnderlayNetwork.globalObserver.globalStatistics  max9RateOf1To1  ETV
vector 9  SimpleUnderlayNetwork.globalObserver.globalStatistics  9rateOf1To2  ETV
vector 10  SimpleUnderlayNetwork.globalObserver.globalStatistics  max9RateOf1To2  ETV
vector 11  SimpleUnderlayNetwork.globalObserver.globalStatistics  9rateOf1To3  ETV
vector 12  SimpleUnderlayNetwork.globalObserver.globalStatistics  max9RateOf1To3  ETV
vector 13  SimpleUnderlayNetwork.globalObserver.globalStatistics  9rateOf1To4  ETV
vector 14  SimpleUnderlayNetwork.globalObserver.globalStatistics  max9RateOf1To4  ETV
vector 15  SimpleUnderlayNetwork.globalObserver.globalStatistics  9rateOf1To5  ETV
vector 16  SimpleUnderlayNetwork.globalObserver.globalStatistics  max9RateOf1To5  ETV
vector 17  SimpleUnderlayNetwork.globalObserver.globalStatistics  9rateOf1To6  ETV
vector 18  SimpleUnderlayNetwork.globalObserver.globalStatistics  max9RateOf1To6  ETV
vector 19  SimpleUnderlayNetwork.globalObserver.globalStatistics  9rateOf1To7  ETV
vector 20  SimpleUnderlayNetwork.globalObserver.globalStatistics  max9RateOf1To7  ETV
vector 21  SimpleUnderlayNetwork.globalObserver.globalStatistics  9rateOf1To8  ETV
vector 22  SimpleUnderlayNetwork.globalObserver.globalStatistics  max9RateOf1To8  ETV
vector 23  SimpleUnderlayNetwork.globalObserver.globalStatistics  9rateOf1To9  ETV
vector 24  SimpleUnderlayNetwork.globalObserver.globalStatistics  max9RateOf1To9  ETV
vector 25  SimpleUnderlayNetwork.globalObserver.globalStatistics  1rate  ETV
vector 26  SimpleUnderlayNetwork.globalObserver.globalStatistics  max2Rate  ETV
vector 27  SimpleUnderlayNetwork.globalObserver.globalStatistics  "GlobalNodeList: Number of nodes"  ETV
vector 28  SimpleUnderlayNetwork.globalObserver.globalStatistics  "GlobalNodeList: Number of bootstrapped malicious nodes"  ETV
1	251770668	6019	84058
1	251814582	6020	85489
1	251857943	6021	83793
1	251901447	6022	84641
1	251944985	6023	84376
1	251988566	6024	84694
1	252032026	6025	84323
1	252075797	6026	85118
1	252119255	6027	84164
1	252162890	6028	84694
1	252206651	6029	85118
1	252250243	6030	84588
1	252293807	6031	84429
1	252337178	6032	84111
1	252380984	6033	85224
1	252424481	6034	84323
1	252468239	6035	84906
1	252511796	6036	84535
1	252555398	6037	84800
1	252599230	6038	85012
1	252642985	6039	85065
1	252686757	6040	84959
1	252730278	6041	84482
1	252773892	6042	84535
1	252817449	6043	84482
1	252861402	6044	85330
1	252905398	6045	85595
1	252949164	6046	84800
1	252993123	6047	85436
1	253036688	6048	84535
1	253080531	6049	85118
1	253124307	6050	85065
1	253168157	6051	84959
1	253211643	6052	84694
1	253255287	6053	84694
1	253298765	6054	84482
1	253342366	6055	84641
1	253386161	6056	85065
1	253429791	6057	84694
1	253473632	6058	85330
1	253517315	6059	84588
1	253561391	6060	85754
1	253604979	6061	84747
1	253648560	6062	84641
1	253692207	6063	84800
1	253735816	6064	84535
1	253779277	6065	84217
1	253823061	6066	84959
1	253866816	6067	85171
1	253910595	6068	84853
1	253953918	6069	84058
1	253997554	6070	84747
1	254041390	6071	85171
1	254085052	6072	84588
1	254128936	6073	85330
1	254172520	6074	84429
1	254216223	6075	84853
1	254259886	6076	85012
1	254303313	6077	84164
1	254346844	6078	84482
1	254389976	6079	83369
1	254433542	6080	84694
1	254477338	6081	85118
1	254520689	6082	84005
1	254564349	6083	84747
1	254607776	6084	84323
1	254651473	6085	84588
1	254695160	6086	85012
1	254738848	6087	84747
1	254782738	6088	85489
1	254826424	6089	84747
1	254870229	6090	85012
1	254913974	6091	84853
1	254957502	6092	84641
1	255001219	6093	84641
1	255044782	6094	84694
1	255088608	6095	84906
1	255132208	6096	84641
1	255175948	6097	84747
1	255219636	6098	84800
1	255263386	6099	84906
1	255306961	6100	84747
1	255350615	6101	84747
1	255394365	6102	84800
1	255438026	6103	84853
1	255481483	6104	84323
1	255525152	6105	84747
1	255568607	6106	84164
1	255612068	6107	84429
1	255655700	6108	84694
1	255699378	6109	84694
1	255743177	6110	85383
1	255786555	6111	83899
1	255830149	6112	84482
1	255873778	6113	84641
1	255917169	6114	84482
1	255960717	6115	84535
1	256004267	6116	84376
1	256047791	6117	84429
1	256091395	6118	84588
1	256135242	6119	85489
1	256178695	6120	84111
1	256222550	6121	85171
1	256266177	6122	84482
1	256310103	6123	85489
1	256353713	6124	84429
1	256397404	6125	85171
1	256440991	6126	84482
1	256484863	6127	85171
1	256528282	6128	84005
1	256571868	6129	84853
1	256615385	6130	84482
1	256659098	6131	84959
1	256702622	6132	84376
1	256746249	6133	84482
1	256789834	6134	84853
1	256833453	6135	84429
1	256877088	6136	84747
1	256920808	6137	84906
1	256964580	6138	84959
1	257008159	6139	84694
1	257051915	6140	84906
1	257095827	6141	85277
1	257139760	6142	85224
1	257183359	6143	84694
1	257227166	6144	84906
1	257271018	6145	85224
1	257314648	6146	84482
1	257358158	6147	84482
1	257401759	6148	84641
1	257445126	6149	84164
1	257488642	6150	84376
1	257532266	6151	84694
1	257576055	6152	85012
1	257619901	6153	85171
1	257663507	6154	84588
1	257707365	6155	85012
1	257751106	6156	84906
1	257794734	6157	84482
1	257838691	6158	85383
1	257882357	6159	84800
1	257925852	6160	84058
1	257969507	6161	85012
1	258013466	6162	85436
1	258057203	6163	84853
1	258101230	6164	85542
1	258145179	6165	85330
1	258188836	6166	84588
1	258232740	6167	85330
1	258276595	6168	85065
1	258320433	6169	85171
1	258363831	6170	84164
1	258407855	6171	85701
1	258451739	6172	85012
1	258495475	6173	84906
1	258539063	6174	84588
1	258582887	6175	85118
1	258626511	6176	84482
1	258670216	6177	84959
1	258714164	6178	85436
1	258758037	6179	85118
1	258802038	6180	85330
1	258845926	6181	85330
1	258889799	6182	85171
1	258933698	6183	84959
1	258977729	6184	85489
1	259021575	6185	85065
1	259065602	6186	85383
1	259109555	6187	85383
1	259153746	6188	85754
1	259197205	6189	84111
1	259241035	6190	85224
1	259284930	6191	84959
1	259328758	6192	85171
1	259372493	6193	84694
1	259416465	6194	85595
1	259459783	6195	83793
1	259503437	6196	84641
1	259547342	6197	85383
1	259591235	6198	85118
1	259635160	6199	84906
1	259679103	6200	85330
1	259723129	6201	85383
1	259766865	6202	85118
1	259810276	6203	84005
1	259854260	6204	85383
1	259898230	6205	85595
1	259942032	6206	84800
1	259985850	6207	85171
1	260029499	6208	84429
1	260073362	6209	85277
1	260116977	6210	84800
1	260161196	6211	85913
1	260205111	6212	85012
1	260249123	6213	85224
1	260293022	6214	85436
1	260336971	6215	85118
1	260380770	6216	85065
1	260424851	6217	85542
1	260468906	6218	85542
1	260513009	6219	85807
1	260556740	6220	84906
1	260600630	6221	85012
1	260644924	6222	86072
1	260688755	6223	85118
1	260732804	6224	85489
1	260776507	6225	84853
1	260820519	6226	85224
1	260864727	6227	85807
1	260908784	6228	85595
1	260953115	6229	86019
1	260997676	6230	86602
1	261041766	6231	85277
1	261086093	6232	86019
1	261130213	6233	85595
1	261174439	6234	85489
1	261218770	6235	85807
1	261262955	6236	85595
1	261307340	6237	86125
1	261351665	6238	85701
1	261395591	6239	85118
1	261439799	6240	85966
1	261484128	6241	85754
1	261528721	6242	86602
1	261573016	6243	85966
1	261617134	6244	85383
1	261661545	6245	86284
1	261706074	6246	86602
1	261750241	6247	85436
1	261794252	6248	85277
1	261838361	6249	85330
1	261882647	6250	85913
1	261926863	6251	85595
1	261971371	6252	86549
1	262015388	6253	85065
1	262059926	6254	86496
1	262104561	6255	86920
1	262149064	6256	85913
1	262193380	6257	86019
1	262237977	6258	86549
1	262282206	6259	85754
1	262326709	6260	85966
1	262370803	6261	85648
1	262414960	6262	85542
1	262459321	6263	85807
1	262503776	6264	86337
1	262547941	6265	85595
1	262592588	6266	86761
1	262637102	6267	86231
1	262681511	6268	86231
1	262726019	6269	86337
1	262770386	6270	85913
1	262814786	6271	85913
1	262858923	6272	85542
1	262903296	6273	86019
1	262947503	6274	85807
1	262991811	6275	86019
1	263036150	6276	86231
1	263080332	6277	85595
1	263124614	6278	85807
1	263169289	6279	86443
1	263213877	6280	86761
1	263257958	6281	85224
1	263302322	6282	86125
1	263346308	6283	85171
1	263390332	6284	85171
1	263434107	6285	84800
1	263478521	6286	86072
1	263522632	6287	85383
1	263566910	6288	85966
1	263611015	6289	85436
1	263655168	6290	85330
1	263699437	6291	85966
1	263743793	6292	86390
1	263787768	6293	85012
1	263832153	6294	86496
1	263876095	6295	85065
1	263920159	6296	85383
1	263964580	6297	86125
1	264008719	6298	85436
1	264052995	6299	86072
1	264096997	6300	85224
1	264141452	6301	86284
1	264185483	6302	85277
1	264229542	6303	85171
1	264274022	6304	86337
1	264317923	6305	84959
1	264362216	6306	85966
1	264406772	6307	86390
1	264450714	6308	84800
1	264494959	6309	86178
1	264538945	6310	85012
1	264583259	6311	85807
1	264627349	6312	85595
1	264671177	6313	84853
1	264715487	6314	86019
1	264759440	6315	85224
1	264803867	6316	86072
1	264848058	6317	85701
1	264892399	6318	86019
1	264936584	6319	85807
1	264980783	6320	85489
1	265025231	6321	86231
1	265069217	6322	85277
1	265113072	6323	84800
1	265157187	6324	85436
1	265201374	6325	85860
1	265245329	6326	85171
1	265289285	6327	85224
1	265333288	6328	85383
1	265377442	6329	85489
1	265421388	6330	85383
1	265465333	6331	85330
1	265509508	6332	85701
1	265553915	6333	86072
1	265597926	6334	85489
1	265641869	6335	85436
1	265685940	6336	85224
1	265730005	6337	85489
1	265773726	6338	84694
1	265817555	6339	84641
1	265861958	6340	86390
1	265905851	6341	85012
1	265950127	6342	86019
1	265994081	6343	85065
1	266038532	6344	86390
1	266082620	6345	85595
1	266126927	6346	85860
1	266171254	6347	85913
1	266215068	6348	85012
1	266259336	6349	85754
1	266303537	6350	85913
1	266347754	6351	85595
1	266391774	6352	85330
1	266435679	6353	85277
1	266479427	6354	84694
1	266523385	6355	85330
1	266567169	6356	84800
1	266611285	6357	85807
1	266655629	6358	86231
1	266699697	6359	85489
1	266743853	6360	85701
1	266787908	6361	85383
1	266831727	6362	85277
1	266875286	6363	83952
1	266919357	6364	85542
1	266963080	6365	84535
1	267007160	6366	85860
1	267051159	6367	85224
1	267095300	6368	85754
1	267138872	6369	84535
1	267182787	6370	85383
1	267226747	6371	85171
1	267270487	6372	85012
1	267314596	6373	85595
1	267358513	6374	85277
1	267402164	6375	84694
1	267445935	6376	84588
1	267489917	6377	85171
1	267533940	6378	85489
1	267577970	6379	85701
1	267621606	6380	84535
1	267665570	6381	85383
1	267709483	6382	85383
1	267753094	6383	84535
1	267796865	6384	84800
1	267840832	6385	85542
1	267884675	6386	84906
1	267928858	6387	85701
1	267972860	6388	85542
1	268017220	6389	86019
1	268061312	6390	85807
1	268105110	6391	84747
1	268149260	6392	85860
1	268193254	6393	85330
1	268237379	6394	85807
1	268281395	6395	85171
1	268325748	6396	86231
1	268369727	6397	85436
1	268413683	6398	84959
1	268457773	6399	85807
1	268501946	6400	85754
1	268545708	6401	85065
1	268590081	6402	86178
1	268633764	6403	84535
1	268677778	6404	85595
1	268721513	6405	84853
1	268765279	6406	84959
1	268809176	6407	85012
1	268853254	6408	85489
1	268897438	6409	85807
1	268941296	6410	84906
1	268985182	6411	85224
1	269029258	6412	85648
1	269073430	6413	85436
1	269117561	6414	85807
1	269161376	6415	84800
1	269205619	6416	86019
1	269249601	6417	85330
1	269293809	6418	85754
1	269337674	6419	85171
1	269381908	6420	86125
1	269425766	6421	84853
1	269469758	6422	85330
1	269513623	6423	84906
1	269557714	6424	85595
1	269601668	6425	85436
1	269645797	6426	85330
1	269689804	6427	85489
1	269733874	6428	85489
1	269778072	6429	85489
1	269822214	6430	85489
1	269866100	6431	85118
1	269910299	6432	85807
1	269954301	6433	85277
1	269998462	6434	85383
1	270042432	6435	85224
1	270086633	6436	85754
1	270130853	6437	85860
1	270175003	6438	85542
1	270219418	6439	86072
1	270263797	6440	86284
1	270308155	6441	85754
1	270352343	6442	85489
1	270396643	6443	85966
1	270441016	6444	86337
1	270485145	6445	85489
1	270529434	6446	85966
1	270573823	6447	85860
1	270618046	6448	85966
1	270662588	6449	86178
1	270706733	6450	85754
1	270751122	6451	85966
1	270795208	6452	85807
1	270839357	6453	85330
1	270883698	6454	86125
1	270927727	6455	85648
1	270971883	6456	85436
1	271015990	6457	85542
1	271060320	6458	86019
1	271104409	6459	85489
1	271148428	6460	85277
1	271192645	6461	85860
1	271236912	6462	85701
1	271281137	6463	85966
1	271325012	6464	84747
1	271368971	6465	85595
1	271413271	6466	86019
1	271457005	6467	84853
1	271500926	6468	85171
1	271544784	6469	85436
1	271588653	6470	84800
1	271632810	6471	85754
1	271677276	6472	86284
1	271721447	6473	85542
1	271765484	6474	85436
1	271809521	6475	85383
1	271853426	6476	85436
1	271897264	6477	84747
1	271941750	6478	86390
1	271985612	6479	85012
1	272029799	6480	85860
1	272074115	6481	85913
1	272117914	6482	84959
1	272161961	6483	85648
1	272206191	6484	85807
1	272250269	6485	85436
1	272294471	6486	85807
1	272338535	6487	85277
1	272382641	6488	85383
1	272426716	6489	85436
1	272470946	6490	85913
1	272515405	6491	86337
1	272559550	6492	85489
1	272603869	6493	86072
1	272647790	6494	85065
1	272691884	6495	85542
1	272735793	6496	85012
1	272780035	6497	85860
1	272824057	6498	85277
1	272868107	6499	85277
1	272911953	6500	84853
1	272955992	6501	85383
1	272999888	6502	84747
1	273044045	6503	85754
1	273087945	6504	85012
1	273132155	6505	85648
1	273176273	6506	85701
1	273220612	6507	85966
1	273264517	6508	84853
1	273308818	6509	85913
1	273352924	6510	85118
1	273397441	6511	86549
1	273441611	6512	85277
1	273486299	6513	86867
1	273530509	6514	85595
1	273574923	6515	85966
1	273619039	6516	85489
1	273663214	6517	85436
1	273707164	6518	85118
1	273751278	6519	85648
1	273795165	6520	84747
1	273839645	6521	86284
1	273883965	6522	86125
1	273928503	6523	86125
1	273972877	6524	86072
1	274017284	6525	86125
1	274061185	6526	84959
1	274105584	6527	86231
1	274149936	6528	86178
1	274194434	6529	86390
1	274238515	6530	84906
1	274282562	6531	85330
1	274327121	6532	86390
1	274371650	6533	86125
1	274416116	6534	86443
1	274460200	6535	85065
1	274504727	6536	86549
1	274549053	6537	86019
1	274593191	6538	85648
1	274637627	6539	86072
1	274681559	6540	85277
1	274725914	6541	85807
1	274770328	6542	86019
1	274814821	6543	86337
1	274859258	6544	86019
1	274903724	6545	86284
1	274948216	6546	86284
1	274992547	6547	85966
1	275036799	6548	85648
1	275081237	6549	85966
1	275125469	6550	85807
1	275169711	6551	85701
1	275213358	6552	84323
1	275257990	6553	86496
1	275302325	6554	85966
1	275346792	6555	85754
1	275391406	6556	86655
1	275435528	6557	85224
1	275479657	6558	85383
1	275524194	6559	86231
1	275568208	6560	85065
1	275612522	6561	85754
1	275656868	6562	85966
1	275700957	6563	85330
1	275745543	6564	86549
1	275789823	6565	85542
1	275833250	6566	83687
1	275877496	6567	85913
1	275921523	6568	85542
1	275965863	6569	85860
1	276010027	6570	85754
1	276054554	6571	86549
1	276098589	6572	85330
1	276143040	6573	86178
1	276187330	6574	85966
1	276231655	6575	85807
1	276276090	6576	86178
1	276320462	6577	85966
1	276364559	6578	85277
1	276409045	6579	86284
1	276453126	6580	85277
1	276497571	6581	86284
1	276541988	6582	86125
1	276586562	6583	86549
1	276631111	6584	86390
1	276675598	6585	86178
1	276719656	6586	85224
1	276764079	6587	86019
1	276808440	6588	85913
1	276852720	6589	85648
1	276896892	6590	85542
1	276941280	6591	86019
1	276985437	6592	85595
1	277029832	6593	86072
1	277074289	6594	86178
1	277118665	6595	85913
1	277162972	6596	85648
1	277207417	6597	86178
1	277251593	6598	85436
1	277295673	6599	85224
1	277339835	6600	85489
1	277384211	6601	86125
1	277428674	6602	86178
1	277472934	6603	85754
1	277517070	6604	85330
1	277561307	6605	85807
1	277605493	6606	85648
1	277649639	6607	85542
1	277694079	6608	86231
1	277738427	6609	86019
1	277782558	6610	85595
1	277826892	6611	85913
1	277871251	6612	85807
1	277915419	6613	85595
1	277959608	6614	85595
1	278003951	6615	85860
1	278048404	6616	86337
1	278092885	6617	86337
1	278137076	6618	85542
1	278181597	6619	86390
1	278226013	6620	86178
1	278270491	6621	86231
1	278314811	6622	85701
1	278359472	6623	86496
1	278403743	6624	85966
1	278448125	6625	85754
1	278492986	6626	87185
1	278537708	6627	86655
1	278581906	6628	85701
1	278626150	6629	85542
1	278670677	6630	86602
1	278714727	6631	85118
1	278758928	6632	86125
1	278803467	6633	86231
1	278847582	6634	85489
1	278892061	6635	86337
1	278936233	6636	85436
1	278980786	6637	86337
1	279025082	6638	85860
1	279069538	6639	86496
1	279114026	6640	86443
1	279158069	6641	85224
1	279202251	6642	85807
1	279246743	6643	86443
1	279291065	6644	85860
1	279335530	6645	86125
1	279379607	6646	85489
1	279423680	6647	85595
1	279467652	6648	85171
1	279511720	6649	85436
1	279555691	6650	85012
1	279599788	6651	85542
1	279643701	6652	85012
1	279687907	6653	85754
1	279732184	6654	86019
1	279776303	6655	85595
1	279820494	6656	85489
1	279864842	6657	85807
1	279908805	6658	85224
1	279952583	6659	84853
1	279996594	6660	85489
1	280040529	6661	85012
1	280084707	6662	85648
1	280128537	6663	85171
1	280172598	6664	85701
1	280216690	6665	85330
1	280260788	6666	85648
1	280304714	6667	85489
1	280348676	6668	84906
1	280392978	6669	86178
1	280437067	6670	85383
1	280481065	6671	85489
1	280525318	6672	85807
1	280569196	6673	85277
1	280613167	6674	85118
1	280657373	6675	86019
1	280701453	6676	85648
1	280745576	6677	85489
1	280789578	6678	85542
1	280833578	6679	85277
1	280877439	6680	85171
1	280921812	6681	86390
1	280965631	6682	85065
1	281009559	6683	85224
1	281053356	6684	84906
1	281097340	6685	85277
1	281141394	6686	85701
1	281185134	6687	84641
1	281229203	6688	85489
1	281273157	6689	85436
1	281317096	6690	85277
1	281361004	6691	85224
1	281405099	6692	85807
1	281448772	6693	84694
1	281492620	6694	85277
1	281536662	6695	85436
1	281580410	6696	85012
1	281624452	6697	85595
1	281668370	6698	85330
1	281712011	6699	84694
1	281756048	6700	85489
1	281800117	6701	85595
1	281843903	6702	85118
1	281888171	6703	85913
1	281932047	6704	85277
1	281975663	6705	84323
1	282019028	6706	84111
1	282062978	6707	85330
1	282106985	6708	85595
1	282150739	6709	84853
1	282194676	6710	85065
1	282238511	6711	85277
1	282282410	6712	85224
1	282326355	6713	85701
1	282370386	6714	85489
1	282414346	6715	85065
1	282458083	6716	84800
1	282502001	6717	85489
1	282545798	6718	84906
1	282589607	6719	85171
1	282633509	6720	85383
1	282677314	6721	84906
1	282721187	6722	85012
1	282765044	6723	85436
1	282808741	6724	84535
1	282852731	6725	85489
1	282896794	6726	85542
1	282940720	6727	85224
1	282984881	6728	85754
1	283028848	6729	85489
1	283072541	6730	84482
1	283116608	6731	85595
1	283160432	6732	85383
1	283204669	6733	86019
1	283248620	6734	85012
1	283292967	6735	86178
1	283336990	6736	85383
1	283380816	6737	84853
1	283425159	6738	85966
1	283468922	6739	84747
1	283513174	6740	86019
1	283557323	6741	85542
1	283601356	6742	85701
1	283645458	6743	85277
1	283689163	6744	84747
1	283732984	6745	84853
1	283777200	6746	86178
1	283821265	6747	85277
1	283865415	6748	85913
1	283909347	6749	85171
1	283953353	6750	85277
1	283997387	6751	85436
1	284041065	6752	84641
1	284085157	6753	85595
1	284128938	6754	85065
1	284173006	6755	85383
1	284217132	6756	85807
1	284260885	6757	84588
1	284305052	6758	85807
1	284349109	6759	85436
1	284392687	6760	84376
1	284437104	6761	86602
1	284481196	6762	85118
1	284525357	6763	85489
1	284569556	6764	85701
1	284613521	6765	85489
1	284657454	6766	85383
1	284701544	6767	85436
1	284745697	6768	85754
1	284789622	6769	85171
1	284833659	6770	85224
1	284877727	6771	85436
1	284921589	6772	84747
1	284965934	6773	86284
1	285009596	6774	84535
1	285053652	6775	85383
1	285097681	6776	85383
1	285142159	6777	86390
1	285186414	6778	85860
1	285230416	6779	85277
1	285274302	6780	85012
1	285318393	6781	85595
1	285362168	6782	85012
1	285406287	6783	85542
1	285450344	6784	85383
1	285493889	6785	84429
1	285537689	6786	84853
1	285581907	6787	85807
1	285625841	6788	85436
1	285670014	6789	85807
1	285713964	6790	85224
1	285758588	6791	87026
1	285802214	6792	84323
1	285846417	6793	86019
1	285890031	6794	84429
1	285934006	6795	85277
1	285977962	6796	85224
1	286022057	6797	85436
1	286066082	6798	85436
1	286110354	6799	86019
1	286154379	6800	85754
1	286198370	6801	85383
1	286242496	6802	85542
1	286286347	6803	85118
1	286330359	6804	85489
1	286374188	6805	85012
1	286418233	6806	85595
1	286461941	6807	84747
1	286506300	6808	86178
1	286550609	6809	86072
1	286594845	6810	85966
1	286638824	6811	85330
1	286683013	6812	85860
1	286727260	6813	85754
1	286771405	6814	85754
1	286815600	6815	85754
1	286859757	6816	85383
1	286904053	6817	85913
1	286948185	6818	85595
1	286992248	6819	85701
1	287036285	6820	85542
1	287080271	6821	85277
1	287124137	6822	84906
1	287168602	6823	86496
1	287212617	6824	85436
1	287256813	6825	85807
1	287300936	6826	85648
1	287345092	6827	85383
1	287389422	6828	86496
1	287433527	6829	85330
1	287477571	6830	85489
1	287521827	6831	85860
1	287565870	6832	85595
1	287610158	6833	85860
1	287654484	6834	86178
1	287698595	6835	85489
1	287742824	6836	85754
1	287786985	6837	85542
1	287831337	6838	86178
1	287875523	6839	85807
1	287919918	6840	86072
1	287964261	6841	85966
1	288008818	6842	86708
1	288052938	6843	85701
1	288097301	6844	86072
1	288141575	6845	85754
1	288186102	6846	86337
1	288230556	6847	86178
1	288274961	6848	86390
1	288319277	6849	86231
1	288363622	6850	85807
1	288407997	6851	86390
1	288452218	6852	85648
1	288496683	6853	86496
1	288540910	6854	85542
1	288584936	6855	85118
1	288629247	6856	86072
1	288673640	6857	86125
1	288717932	6858	85966
1	288761931	6859	85330
1	288806475	6860	86496
1	288850867	6861	86178
1	288895083	6862	85807
1	288939298	6863	85701
1	288983604	6864	86284
1	289027937	6865	85807
1	289072394	6866	86496
1	289116686	6867	85701
1	289161198	6868	86284
1	289205625	6869	86125
1	289250081	6870	86443
1	289294671	6871	86496
1	289339156	6872	86231
1	289383637	6873	86337
1	289428049	6874	86125
1	289472562	6875	86443
1	289517162	6876	86496
1	289561731	6877	86655
1	289606344	6878	86443
1	289650795	6879	86284
1	289694924	6880	85542
1	289739447	6881	86549
1	289783908	6882	86231
1	289828305	6883	86125
1	289873081	6884	87079
1	289917569	6885	86284
1	289961709	6886	85648
1	290006112	6887	86231
1	290050486	6888	86019
1	290095145	6889	86814
1	290139475	6890	86019
1	290184013	6891	86390
1	290228718	6892	86867
1	290273185	6893	86125
1	290317401	6894	85860
1	290361794	6895	86125
1	290406413	6896	86814
1	290450748	6897	85913
1	290495317	6898	86655
1	290539522	6899	85489
1	290584060	6900	86496
1	290628721	6901	86814
1	290673207	6902	86072
1	290717622	6903	86072
1	290762228	6904	86655
1	290806977	6905	86761
1	290851446	6906	86284
1	290895942	6907	86178
1	290940685	6908	86973
1	290985146	6909	85754
1	291029694	6910	86867
1	291074076	6911	85860
1	291118849	6912	86761
1	291163321	6913	86231
1	291207821	6914	86125
1	291252431	6915	86443
1	291297175	6916	87026
1	291341531	6917	85595
1	291386224	6918	86973
1	291430927	6919	86549
1	291475595	6920	86814
1	291519972	6921	85913
1	291564828	6922	87185
1	291609097	6923	85754
1	291653582	6924	86390
1	291697983	6925	86178
1	291742851	6926	87185
1	291787602	6927	86867
1	291832264	6928	86496
1	291876788	6929	86390
1	291921421	6930	86655
1	291966223	6931	86920
1	292010743	6932	86125
1	292055324	6933	86814
1	292099791	6934	86019
1	292144283	6935	86602
1	292188802	6936	86125
1	292232948	6937	85542
1	292277111	6938	85648
1	292321734	6939	86602
1	292366540	6940	87132
1	292411211	6941	86761
1	292455859	6942	86496
1	292500327	6943	86019
1	292544891	6944	86602
1	292589569	6945	86549
1	292634250	6946	86337
1	292678680	6947	86072
1	292723524	6948	86920
1	292767979	6949	86231
1	292812698	6950	87026
1	292857408	6951	86443
1	292902323	6952	87291
1	292946613	6953	85754
1	292991092	6954	85966
1	293035510	6955	86178
1	293080032	6956	86814
1	293124110	6957	85277
1	293168620	6958	86496
1	293213022	6959	85754
1	293257786	6960	86867
1	293302659	6961	87026
1	293347071	6962	86019
1	293391531	6963	86337
1	293436117	6964	86496
1	293480871	6965	86920
1	293525452	6966	86655
1	293570021	6967	86496
1	293614719	6968	86867
1	293659088	6969	86178
1	293703426	6970	85595
1	293747745	6971	86125
1	293792344	6972	86390
1	293836860	6973	86231
1	293881579	6974	87185
1	293926220	6975	86337
1	293970773	6976	86549
1	294015616	6977	87132
1	294060192	6978	86814
1	294104482	6979	85701
1	294148783	6980	86019
1	294193312	6981	86390
1	294237977	6982	86602
1	294282523	6983	86390
1	294326860	6984	85966
1	294371348	6985	86390
1	294415989	6986	86443
1	294460694	6987	86814
1	294505307	6988	86655
1	294549717	6989	86390
1	294593998	6990	85754
1	294638743	6991	86708
1	294683053	6992	86072
1	294727465	6993	85966
1	294771931	6994	86178
1	294816511	6995	86708
1	294861325	6996	87026
1	294905890	6997	86231
1	294950529	6998	86655
1	294995149	6999	86443
1	295039913	7000	86602
1	295084368	7001	86337
1	295128668	7002	85913
1	295172946	7003	85701
1	295217589	7004	86549
1	295262082	7005	86125
1	295306818	7006	87132
1	295351320	7007	86072
1	295395545	7008	85913
1	295440120	7009	86655
1	295484551	7010	85913
1	295529446	7011	87556
1	295574047	7012	86231
1	295618620	7013	86549
1	295662856	7014	85595
1	295707268	7015	85966
1	295751861	7016	86602
1	295796256	7017	85966
1	295840877	7018	86973
1	295884855	7019	84906
1	295929114	7020	85966
1	295973250	7021	85542
1	296017790	7022	86443
1	296062455	7023	86761
1	296106801	7024	85860
1	296151320	7025	86443
1	296195608	7026	86125
1	296240023	7027	86125
1	296284555	7028	86337
1	296329160	7029	86390
1	296373341	7030	85966
1	296417723	7031	86019
1	296461969	7032	85913
1	296506186	7033	85648
1	296550783	7034	86390
1	296595496	7035	86973
1	296640131	7036	86496
1	296684801	7037	86761
1	296729412	7038	86496
1	296773673	7039	85966
1	296818076	7040	85860
1	296862611	7041	86496
1	296906952	7042	85860
1	296951090	7043	85913
1	296995535	7044	86072
1	297039918	7045	86284
1	297084517	7046	86602
1	297128978	7047	86019
1	297173606	7048	86549
1	297218171	7049	86655
1	297262482	7050	85754
1	297307102	7051	86708
1	297351640	7052	86549
1	297396283	7053	86708
1	297440807	7054	85966
1	297485477	7055	86814
1	297530140	7056	86496
1	297574763	7057	86496
1	297619360	7058	86443
1	297664152	7059	87026
1	297708931	7060	86973
1	297753607	7061	86655
1	297798386	7062	87026
1	297843061	7063	86655
1	297887706	7064	86496
1	297932159	7065	86231
1	297976353	7066	85489
1	298021290	7067	87132
1	298066097	7068	86761
1	298110834	7069	86814
1	298155616	7070	86973
1	298200098	7071	85913
1	298244813	7072	86814
1	298289328	7073	86125
1	298334195	7074	87450
1	298378628	7075	86231
1	298423054	7076	85754
1	298467533	7077	86072
1	298512287	7078	86814
1	298556999	7079	86814
1	298601569	7080	86231
1	298646412	7081	86814
1	298690765	7082	85595
1	298735506	7083	86602
1	298780006	7084	86337
1	298824051	7085	84853
1	298868824	7086	87026
1	298913435	7087	86390
1	298957993	7088	86284
1	299002167	7089	85330
1	299046903	7090	86920
1	299091474	7091	86072
1	299135811	7092	85807
1	299180292	7093	86019
1	299225134	7094	87132
1	299269784	7095	86496
1	299314091	7096	85966
1	299358597	7097	86072
1	299403119	7098	86178
1	299447944	7099	87026
1	299492563	7100	86549
1	299537590	7101	87556
1	299582031	7102	85754
1	299627039	7103	87344
1	299671805	7104	86655
1	299716734	7105	87185
1	299761433	7106	86337
1	299806355	7107	87238
1	299850600	7108	85595
1	299895497	7109	86973
1	299940039	7110	86072
1	299984831	7111	86920
1	300029533	7112	86337
1	300074529	7113	87450
1	300119095	7114	86019
1	300163969	7115	87185
1	300208655	7116	86284
1	300253819	7117	87662
1	300298673	7118	86973
1	300343786	7119	87503
1	300388433	7120	86655
1	300433331	7121	87132
1	300478126	7122	86496
1	300523163	7123	87556
1	300567883	7124	86655
1	300612440	7125	86284
1	300657276	7126	86814
1	300701695	7127	85701
1	300746684	7128	87344
1	300791508	7129	87132
1	300836125	7130	86178
1	300881128	7131	87132
1	300926031	7132	87450
1	300970713	7133	86390
1	301015715	7134	87238
1	301060464	7135	86655
1	301105272	7136	86814
1	301150105	7137	86920
1	301194431	7138	85807
1	301239213	7139	86814
1	301283998	7140	86973
1	301328409	7141	85860
1	301373083	7142	86761
1	301417883	7143	86973
1	301462404	7144	86125