version 2
run QLearnCC-1-20100909-14:20:26-5592
attr configname QLearnCC
attr datetime 20100909-14:20:26
attr delay 200ms
attr experiment QLearnCC
attr inifile D:/Developement/Oversim2/multic/simulations/omnetpp.ini
attr iterationvars $delay=200ms
attr iterationvars2 "$delay=200ms, $repetition=0"
attr measurement $delay=200ms
attr network oversim.underlay.simpleunderlay.SimpleUnderlayNetwork
attr processid 5592
attr repetition 0
attr replication #0
attr resultdir results
attr runnumber 1
attr seedset 1

vector 1  SimpleUnderlayNetwork.globalObserver.globalStatistics  incoming_bytes  ETV
vector 2  SimpleUnderlayNetwork.globalObserver.globalStatistics  drops  ETV
vector 3  SimpleUnderlayNetwork.globalObserver.globalStatistics  delayed_acks  ETV
vector 4  SimpleUnderlayNetwork.globalObserver.globalStatistics  timetotimeouts  ETV
vector 5  SimpleUnderlayNetwork.globalObserver.globalStatistics  9rateOf1To0  ETV
vector 6  SimpleUnderlayNetwork.globalObserver.globalStatistics  max9RateOf1To0  ETV
vector 7  SimpleUnderlayNetwork.globalObserver.globalStatistics  9rateOf1To1  ETV
vector 8  SimpleUnderlayNetwork.globalObserver.globalStatistics  max9RateOf1To1  ETV
vector 9  SimpleUnderlayNetwork.globalObserver.globalStatistics  9rateOf1To2  ETV
vector 10  SimpleUnderlayNetwork.globalObserver.globalStatistics  max9RateOf1To2  ETV
vector 11  SimpleUnderlayNetwork.globalObserver.globalStatistics  9rateOf1To3  ETV
vector 12  SimpleUnderlayNetwork.globalObserver.globalStatistics  max9RateOf1To3  ETV
vector 13  SimpleUnderlayNetwork.globalObserver.globalStatistics  9rateOf1To4  ETV
vector 14  SimpleUnderlayNetwork.globalObserver.globalStatistics  max9RateOf1To4  ETV
vector 15  SimpleUnderlayNetwork.globalObserver.globalStatistics  9rateOf1To5  ETV
vector 16  SimpleUnderlayNetwork.globalObserver.globalStatistics  max9RateOf1To5  ETV
vector 17  SimpleUnderlayNetwork.globalObserver.globalStatistics  9rateOf1To6  ETV
vector 18  SimpleUnderlayNetwork.globalObserver.globalStatistics  max9RateOf1To6  ETV
vector 19  SimpleUnderlayNetwork.globalObserver.globalStatistics  9rateOf1To7  ETV
vector 20  SimpleUnderlayNetwork.globalObserver.globalStatistics  max9RateOf1To7  ETV
vector 21  SimpleUnderlayNetwork.globalObserver.globalStatistics  9rateOf1To8  ETV
vector 22  SimpleUnderlayNetwork.globalObserver.globalStatistics  max9RateOf1To8  ETV
vector 23  SimpleUnderlayNetwork.globalObserver.globalStatistics  9rateOf1To9  ETV
vector 24  SimpleUnderlayNetwork.globalObserver.globalStatistics  max9RateOf1To9  ETV
vector 25  SimpleUnderlayNetwork.globalObserver.globalStatistics  1rate  ETV
vector 26  SimpleUnderlayNetwork.globalObserver.globalStatistics  max2Rate  ETV
vector 27  SimpleUnderlayNetwork.globalObserver.globalStatistics  "GlobalNodeList: Number of nodes"  ETV
vector 28  SimpleUnderlayNetwork.globalObserver.globalStatistics  "GlobalNodeList: Number of bootstrapped malicious nodes"  ETV
1	252911065	6017	83793
1	252954216	6018	84111
1	252996967	6019	82044
1	253039981	6020	84005
1	253083067	6021	83422
1	253126192	6022	83528
1	253169456	6023	84164
1	253212625	6024	84058
1	253255539	6025	83051
1	253298594	6026	83422
1	253341558	6027	83528
1	253384655	6028	83793
1	253427759	6029	83157
1	253470835	6030	83793
1	253513761	6031	83157
1	253556888	6032	83475
1	253599888	6033	84005
1	253642589	6034	81249
1	253685321	6035	83846
1	253728076	6036	81832
1	253770745	6037	83634
1	253813459	6038	82468
1	253855981	6039	81461
1	253898551	6040	83422
1	253941464	6041	83369
1	253984495	6042	83369
1	254027372	6043	83422
1	254070257	6044	83051
1	254113168	6045	83316
1	254156176	6046	83687
1	254199068	6047	83051
1	254242083	6048	83846
1	254284579	6049	81567
1	254327008	6050	82733
1	254369922	6051	83581
1	254412795	6052	82839
1	254455760	6053	83634
1	254498860	6054	83581
1	254541621	6055	82627
1	254584419	6056	83104
1	254627321	6057	83263
1	254670361	6058	83528
1	254713356	6059	83581
1	254756356	6060	83528
1	254799161	6061	83051
1	254842084	6062	83210
1	254885037	6063	83316
1	254927777	6064	82150
1	254970544	6065	83157
1	255013318	6066	82945
1	255055953	6067	82627
1	255098956	6068	83634
1	255141936	6069	83634
1	255184881	6070	82998
1	255227777	6071	83422
1	255270602	6072	82945
1	255313459	6073	83157
1	255356216	6074	83104
1	255398758	6075	82362
1	255441621	6076	83263
1	255484428	6077	83157
1	255527119	6078	82468
1	255570062	6079	83475
1	255612875	6080	83316
1	255655739	6081	83051
1	255698485	6082	82150
1	255741165	6083	83475
1	255784010	6084	82839
1	255826826	6085	83051
1	255869875	6086	83952
1	255912860	6087	83263
1	255955700	6088	83263
1	255998579	6089	83369
1	256041529	6090	82786
1	256084418	6091	83369
1	256127109	6092	83051
1	256169918	6093	83051
1	256212728	6094	83051
1	256255583	6095	83210
1	256298194	6096	82203
1	256341184	6097	83634
1	256384267	6098	83846
1	256427278	6099	83210
1	256470339	6100	83369
1	256513233	6101	83528
1	256556281	6102	83475
1	256599141	6103	82998
1	256642215	6104	83740
1	256685180	6105	82839
1	256728274	6106	83846
1	256771577	6107	84111
1	256814609	6108	83316
1	256857425	6109	83157
1	256900477	6110	83422
1	256943489	6111	83581
1	256986654	6112	83687
1	257029537	6113	83157
1	257072610	6114	83687
1	257115598	6115	83051
1	257158610	6116	83952
1	257201412	6117	82627
1	257244636	6118	84270
1	257287282	6119	81461
1	257329967	6120	83581
1	257372965	6121	83475
1	257415997	6122	83528
1	257459048	6123	83369
1	257501974	6124	83475
1	257545098	6125	84058
1	257588132	6126	82998
1	257631205	6127	84005
1	257674150	6128	82733
1	257717088	6129	83687
1	257760038	6130	83051
1	257802809	6131	82998
1	257845853	6132	83475
1	257888934	6133	83528
1	257931751	6134	82892
1	257974829	6135	84058
1	258017746	6136	82574
1	258060847	6137	84164
1	258103868	6138	83422
1	258146977	6139	83740
1	258190035	6140	83422
1	258233214	6141	84058
1	258276502	6142	83899
1	258319750	6143	84164
1	258362774	6144	82839
1	258405699	6145	83634
1	258448920	6146	83952
1	258491902	6147	83581
1	258534573	6148	82468
1	258577544	6149	83793
1	258620514	6150	82733
1	258663309	6151	83369
1	258706459	6152	83581
1	258749690	6153	84005
1	258792800	6154	83316
1	258835898	6155	83793
1	258878821	6156	83528
1	258921919	6157	83687
1	258964975	6158	83581
1	259007934	6159	83369
1	259050941	6160	83475
1	259094223	6161	83634
1	259137235	6162	83846
1	259180422	6163	83740
1	259223526	6164	83634
1	259266524	6165	83687
1	259309291	6166	82627
1	259352359	6167	83899
1	259395458	6168	83581
1	259438401	6169	83528
1	259481513	6170	83634
1	259524705	6171	83846
1	259567681	6172	83051
1	259610711	6173	83634
1	259653825	6174	83740
1	259696822	6175	83369
1	259739836	6176	83475
1	259782854	6177	83528
1	259825928	6178	83846
1	259869203	6179	84217
1	259912311	6180	83528
1	259955547	6181	83899
1	259998481	6182	83157
1	260041230	6183	82680
1	260083981	6184	82945
1	260126868	6185	83581
1	260169791	6186	83369
1	260212741	6187	82945
1	260255838	6188	84005
1	260298988	6189	83687
1	260341984	6190	83316
1	260384749	6191	83051
1	260427815	6192	83528
1	260470705	6193	83210
1	260513600	6194	83475
1	260556542	6195	83528
1	260599679	6196	83634
1	260642437	6197	82521
1	260685260	6198	83422
1	260728056	6199	82627
1	260771073	6200	83899
1	260813942	6201	83104
1	260856809	6202	83051
1	260899822	6203	83793
1	260942907	6204	83740
1	260986025	6205	83422
1	261029211	6206	84005
1	261072134	6207	82892
1	261115293	6208	84217
1	261158409	6209	83475
1	261201371	6210	83793
1	261244496	6211	83528
1	261287465	6212	82998
1	261330631	6213	84270
1	261373987	6214	84376
1	261417224	6215	83369
1	261460142	6216	83210
1	261503159	6217	83740
1	261546206	6218	83369
1	261589466	6219	84270
1	261632443	6220	83104
1	261675432	6221	83581
1	261718594	6222	83952
1	261761569	6223	82733
1	261804400	6224	83475
1	261847390	6225	83210
1	261890255	6226	82998
1	261932957	6227	82256
1	261975796	6228	83846
1	262018868	6229	83316
1	262061908	6230	83846
1	262104927	6231	83210
1	262148014	6232	83846
1	262190998	6233	83369
1	262234195	6234	83952
1	262277015	6235	82415
1	262320007	6236	83581
1	262363043	6237	83157
1	262405789	6238	83316
1	262448759	6239	83263
1	262491830	6240	83687
1	262534843	6241	83210
1	262577792	6242	83263
1	262620756	6243	83316
1	262663691	6244	83051
1	262706868	6245	84058
1	262750039	6246	83687
1	262792946	6247	82839
1	262835564	6248	83104
1	262878338	6249	82733
1	262921326	6250	83793
1	262964106	6251	82468
1	263006976	6252	83475
1	263050101	6253	83793
1	263093186	6254	83528
1	263136394	6255	84005
1	263179412	6256	83422
1	263222516	6257	83528
1	263265388	6258	82468
1	263308315	6259	84058
1	263351379	6260	82945
1	263394467	6261	84217
1	263437650	6262	83634
1	263480803	6263	83475
1	263523765	6264	83157
1	263566896	6265	84535
1	263609880	6266	82574
1	263652653	6267	83210
1	263695526	6268	83104
1	263738380	6269	83263
1	263781165	6270	82892
1	263824046	6271	83369
1	263866786	6272	82839
1	263909559	6273	83051
1	263952402	6274	83581
1	263995356	6275	82733
1	264038232	6276	83422
1	264080943	6277	82680
1	264123831	6278	83687
1	264166437	6279	82203
1	264209378	6280	83846
1	264252276	6281	82892
1	264295012	6282	82415
1	264337912	6283	83475
1	264380862	6284	83051
1	264423973	6285	83793
1	264466966	6286	83528
1	264509833	6287	82892
1	264552443	6288	82521
1	264595236	6289	83051
1	264637984	6290	82733
1	264680851	6291	83740
1	264723881	6292	83475
1	264766819	6293	82945
1	264809629	6294	83157
1	264852473	6295	82839
1	264895327	6296	83528
1	264938211	6297	82892
1	264981171	6298	83793
1	265023930	6299	81726
1	265066267	6300	82733
1	265108940	6301	82892
1	265151810	6302	83157
1	265194829	6303	83740
1	265237932	6304	83528
1	265280928	6305	83581
1	265323956	6306	83316
1	265366488	6307	82150
1	265409182	6308	82892
1	265451912	6309	82892
1	265495091	6310	84164
1	265537912	6311	82415
1	265580499	6312	82468
1	265623273	6313	83316
1	265666406	6314	83899
1	265709519	6315	83210
1	265752796	6316	84482
1	265795909	6317	83475
1	265839000	6318	83793
1	265882026	6319	83952
1	265924695	6320	82044
1	265967422	6321	83634
1	266010291	6322	82786
1	266053207	6323	83369
1	266096190	6324	83051
1	266139073	6325	83157
1	266181919	6326	83369
1	266224794	6327	83316
1	266267728	6328	83475
1	266310812	6329	83210
1	266353650	6330	83475
1	266396621	6331	83369
1	266439622	6332	83475
1	266482710	6333	83740
1	266525528	6334	82521
1	266568352	6335	82998
1	266611348	6336	83793
1	266654232	6337	83316
1	266697102	6338	82945
1	266740006	6339	83475
1	266783099	6340	83581
1	266826174	6341	83581
1	266869010	6342	83210
1	266912143	6343	84217
1	266954956	6344	82097
1	266997836	6345	83687
1	267040570	6346	82415
1	267083618	6347	83846
1	267126789	6348	83634
1	267169909	6349	83846
1	267212935	6350	83210
1	267255913	6351	83475
1	267298946	6352	83422
1	267342088	6353	84270
1	267385061	6354	82627
1	267427747	6355	83263
1	267470736	6356	83422
1	267513851	6357	83634
1	267556891	6358	83528
1	267600167	6359	84217
1	267643405	6360	83899
1	267686749	6361	84005
1	267730003	6362	83899
1	267773149	6363	83422
1	267816073	6364	83740
1	267859179	6365	83316
1	267902242	6366	83263
1	267945429	6367	84641
1	267988689	6368	83581
1	268031933	6369	83846
1	268074880	6370	83051
1	268117960	6371	84217
1	268161380	6372	83899
1	268204633	6373	84217
1	268247558	6374	82892
1	268290568	6375	83634
1	268333735	6376	83846
1	268376984	6377	84058
1	268420311	6378	83740
1	268463453	6379	83793
1	268506662	6380	84111
1	268549982	6381	83793
1	268593047	6382	83369
1	268636381	6383	83952
1	268679437	6384	83528
1	268722719	6385	83899
1	268766059	6386	84111
1	268809334	6387	84323
1	268852709	6388	84058
1	268895932	6389	83740
1	268939072	6390	83740
1	268982360	6391	84058
1	269025449	6392	83051
1	269068686	6393	84111
1	269111962	6394	83687
1	269155221	6395	84164
1	269198635	6396	84164
1	269241843	6397	83952
1	269284922	6398	83369
1	269327740	6399	82786
1	269370700	6400	83740
1	269413846	6401	82998
1	269457015	6402	83952
1	269500271	6403	83740
1	269543382	6404	83687
1	269586312	6405	82680
1	269629214	6406	83316
1	269672238	6407	83581
1	269715402	6408	83793
1	269758561	6409	83581
1	269801731	6410	83581
1	269844866	6411	84005
1	269888045	6412	83793
1	269931267	6413	83846
1	269974468	6414	83740
1	270017635	6415	83846
1	270060947	6416	84164
1	270104291	6417	84111
1	270147765	6418	84376
1	270191082	6419	84005
1	270234348	6420	83634
1	270277625	6421	83952
1	270321152	6422	84641
1	270364530	6423	83846
1	270408047	6424	84906
1	270451684	6425	84588
1	270495284	6426	84853
1	270538607	6427	83740
1	270581934	6428	84217
1	270625162	6429	83581
1	270668501	6430	84058
1	270711910	6431	83952
1	270755166	6432	84429
1	270798463	6433	84217
1	270841697	6434	83369
1	270884940	6435	83952
1	270928362	6436	84535
1	270971703	6437	84217
1	271014902	6438	83581
1	271058263	6439	84111
1	271101489	6440	83952
1	271144696	6441	83793
1	271187881	6442	83634
1	271231453	6443	84959
1	271274973	6444	84376
1	271318515	6445	84270
1	271361992	6446	84906
1	271405368	6447	84058
1	271448639	6448	83687
1	271492105	6449	84694
1	271535500	6450	84058
1	271578869	6451	84005
1	271622305	6452	84747
1	271665363	6453	83316
1	271708447	6454	83475
1	271751589	6455	83422
1	271795093	6456	85224
1	271838518	6457	83793
1	271882299	6458	84906
1	271925765	6459	84535
1	271969429	6460	84853
1	272012945	6461	84482
1	272056316	6462	83157
1	272099851	6463	85489
1	272143353	6464	84005
1	272186804	6465	84111
1	272230229	6466	84482
1	272273522	6467	83687
1	272317021	6468	84588
1	272360298	6469	83740
1	272403728	6470	84111
1	272447228	6471	84641
1	272490816	6472	84270
1	272534264	6473	84641
1	272577988	6474	84959
1	272621649	6475	84959
1	272665402	6476	85065
1	272709136	6477	84588
1	272752762	6478	84270
1	272796510	6479	85277
1	272840114	6480	84641
1	272883781	6481	84429
1	272927518	6482	84800
1	272970877	6483	84164
1	273014559	6484	84747
1	273057935	6485	83846
1	273101390	6486	84853
1	273144985	6487	84323
1	273188512	6488	84588
1	273231957	6489	84111
1	273275456	6490	84588
1	273318975	6491	84164
1	273362258	6492	83846
1	273405715	6493	84694
1	273449267	6494	84535
1	273492583	6495	83952
1	273536053	6496	84376
1	273579390	6497	83952
1	273622596	6498	84005
1	273666323	6499	84694
1	273710010	6500	84694
1	273753593	6501	84588
1	273797092	6502	84482
1	273840679	6503	84800
1	273884232	6504	84164
1	273927662	6505	84641
1	273970948	6506	83952
1	274014288	6507	83740
1	274057664	6508	84429
1	274101012	6509	84005
1	274144526	6510	84005
1	274188231	6511	85065
1	274231798	6512	84800
1	274275307	6513	84270
1	274318928	6514	84694
1	274362353	6515	84588
1	274405752	6516	84005
1	274449458	6517	85118
1	274493005	6518	84058
1	274536346	6519	84111
1	274579790	6520	84323
1	274622977	6521	83687
1	274666416	6522	84323
1	274709745	6523	83899
1	274753249	6524	84694
1	274797039	6525	85171
1	274840947	6526	85224
1	274884600	6527	84747
1	274927949	6528	83581
1	274971331	6529	84535
1	275014640	6530	83581
1	275058007	6531	84588
1	275101345	6532	83475
1	275144798	6533	84800
1	275188160	6534	83528
1	275231418	6535	84429
1	275274852	6536	84111
1	275318260	6537	84376
1	275361581	6538	84005
1	275405033	6539	84747
1	275448535	6540	83952
1	275492076	6541	85012
1	275535413	6542	83846
1	275578907	6543	84694
1	275622419	6544	84270
1	275665924	6545	84429
1	275709482	6546	84535
1	275752818	6547	84164
1	275796216	6548	84005
1	275839511	6549	84005
1	275882865	6550	84164
1	275926294	6551	84323
1	275969537	6552	83793
1	276012682	6553	83793
1	276055924	6554	84111
1	276099186	6555	83793
1	276142528	6556	84535
1	276186081	6557	84376
1	276229452	6558	83899
1	276273069	6559	84747
1	276316578	6560	84588
1	276360160	6561	84800
1	276403790	6562	84641
1	276447239	6563	84217
1	276490606	6564	83740
1	276534203	6565	84959
1	276577728	6566	84429
1	276621237	6567	84217
1	276664684	6568	84800
1	276708091	6569	83422
1	276751570	6570	84694
1	276795190	6571	85012
1	276838476	6572	83846
1	276881698	6573	83422
1	276925153	6574	84641
1	276968630	6575	84429
1	277012004	6576	84747
1	277055255	6577	83104
1	277098391	6578	84217
1	277141683	6579	83846
1	277184774	6580	83634
1	277228026	6581	83846
1	277271170	6582	83793
1	277314150	6583	83210
1	277357482	6584	84694
1	277400672	6585	83104
1	277443968	6586	84270
1	277487288	6587	84111
1	277530547	6588	83422
1	277573629	6589	83104
1	277617004	6590	84853
1	277660086	6591	82892
1	277703344	6592	84429
1	277746579	6593	83634
1	277789858	6594	84482
1	277832970	6595	82680
1	277876071	6596	84058
1	277919182	6597	83740
1	277962090	6598	83157
1	278005172	6599	83475
1	278048440	6600	84429
1	278091584	6601	82998
1	278134571	6602	83687
1	278177661	6603	83793
1	278220945	6604	84164
1	278264304	6605	84005
1	278307488	6606	83899
1	278350700	6607	83634
1	278393875	6608	84323
1	278437361	6609	84217
1	278480721	6610	84323
1	278523902	6611	83316
1	278567084	6612	84323
1	278610359	6613	83369
1	278653451	6614	83846
1	278696854	6615	84217
1	278740184	6616	84217
1	278783373	6617	83952
1	278826450	6618	83475
1	278869679	6619	83846
1	278912773	6620	83793
1	278955855	6621	83634
1	278999004	6622	83369
1	279041939	6623	83475
1	279085046	6624	83634
1	279128247	6625	83687
1	279171347	6626	83952
1	279214609	6627	84058
1	279258043	6628	84111
1	279301449	6629	84535
1	279344612	6630	82786
1	279388035	6631	84800
1	279431440	6632	84058
1	279474875	6633	84217
1	279518131	6634	84482
1	279561346	6635	83846
1	279604650	6636	83634
1	279647981	6637	84217
1	279691262	6638	84164
1	279734508	6639	83634
1	279777858	6640	84270
1	279821117	6641	84111
1	279864532	6642	84323
1	279907740	6643	83687
1	279950846	6644	83634
1	279994069	6645	84111
1	280037372	6646	84058
1	280080755	6647	84058
1	280123719	6648	82786
1	280166892	6649	84376
1	280210030	6650	83687
1	280253298	6651	83846
1	280296339	6652	83634
1	280339457	6653	83899
1	280382413	6654	83316
1	280425435	6655	83263
1	280468675	6656	84482
1	280511661	6657	82733
1	280554524	6658	83422
1	280597683	6659	83899
1	280640911	6660	83687
1	280684070	6661	83687
1	280727440	6662	84323
1	280770650	6663	83952
1	280813954	6664	84270
1	280857128	6665	83634
1	280900232	6666	83793
1	280943450	6667	83687
1	280986945	6668	84694
1	281030147	6669	83316
1	281073439	6670	84376
1	281116871	6671	84058
1	281160206	6672	84164
1	281203494	6673	84164
1	281246848	6674	83740
1	281290054	6675	83581
1	281333676	6676	84959
1	281377213	6677	84588
1	281420481	6678	83899
1	281463774	6679	83581
1	281507148	6680	84535
1	281550562	6681	83899
1	281594090	6682	84853
1	281637597	6683	84164
1	281680892	6684	83793
1	281724355	6685	84800
1	281767709	6686	83687
1	281811113	6687	84376
1	281854639	6688	84641
1	281898249	6689	84694
1	281941883	6690	84217
1	281985181	6691	84376
1	282028363	6692	83210
1	282071436	6693	83634
1	282114664	6694	84217
1	282157920	6695	83528
1	282201183	6696	84270
1	282244517	6697	84005
1	282288061	6698	84853
1	282331669	6699	84429
1	282375243	6700	84641
1	282418471	6701	83687
1	282461780	6702	84217
1	282505101	6703	84005
1	282548448	6704	84058
1	282592070	6705	84588
1	282635657	6706	85118
1	282678858	6707	82945
1	282722156	6708	84111
1	282765646	6709	84853
1	282809257	6710	84482
1	282852719	6711	84111
1	282896066	6712	84217
1	282939823	6713	85224
1	282983369	6714	84429
1	283027081	6715	84694
1	283070647	6716	84429
1	283113998	6717	84376
1	283157191	6718	83687
1	283200487	6719	84058
1	283243843	6720	84111
1	283287184	6721	84111
1	283330864	6722	85065
1	283374241	6723	83899
1	283417616	6724	84217
1	283461062	6725	83952
1	283504392	6726	84270
1	283547600	6727	83687
1	283590959	6728	84111
1	283634616	6729	85224
1	283678184	6730	84005
1	283721716	6731	84906
1	283765519	6732	84800
1	283809312	6733	85065
1	283852991	6734	84588
1	283896632	6735	84641
1	283940210	6736	84800
1	283983895	6737	84376
1	284027501	6738	84641
1	284071392	6739	85277
1	284115184	6740	84535
1	284158901	6741	85171
1	284202661	6742	84800
1	284246402	6743	85118
1	284290155	6744	84641
1	284333864	6745	85277
1	284377557	6746	84323
1	284421099	6747	84694
1	284464719	6748	84853
1	284508212	6749	84482
1	284551778	6750	84429
1	284595185	6751	84376
1	284638705	6752	83952
1	284682253	6753	84694
1	284725869	6754	84535
1	284769570	6755	85012
1	284813233	6756	84111
1	284856865	6757	85118
1	284900491	6758	84482
1	284943993	6759	84429
1	284987735	6760	84959
1	285031385	6761	85012
1	285075163	6762	85171
1	285118867	6763	84800
1	285162178	6764	83899
1	285205569	6765	84429
1	285249256	6766	84482
1	285292772	6767	84376
1	285336477	6768	85012
1	285380173	6769	85012
1	285423343	6770	83263
1	285466881	6771	84535
1	285510483	6772	84853
1	285554012	6773	84164
1	285597504	6774	84482
1	285641186	6775	84641
1	285684815	6776	84641
1	285728316	6777	83952
1	285771936	6778	84800
1	285815586	6779	84588
1	285859324	6780	85065
1	285902834	6781	84535
1	285946346	6782	84535
1	285990083	6783	84747
1	286033783	6784	85171
1	286077246	6785	83952
1	286120639	6786	84058
1	286164085	6787	84429
1	286207698	6788	84959
1	286251194	6789	83687
1	286294809	6790	85118
1	286338476	6791	84323
1	286381721	6792	84323
1	286425184	6793	84058
1	286468731	6794	84800
1	286512302	6795	84270
1	286555810	6796	84588
1	286599605	6797	84853
1	286642997	6798	84270
1	286686665	6799	84906
1	286730475	6800	84641
1	286774014	6801	84217
1	286817550	6802	84323
1	286861097	6803	84482
1	286904758	6804	85065
1	286948449	6805	84641
1	286991968	6806	84217
1	287035440	6807	84535
1	287079008	6808	84111
1	287122334	6809	83475
1	287165708	6810	84429
1	287209284	6811	84376
1	287252913	6812	84906
1	287296430	6813	84164
1	287339966	6814	84641
1	287383432	6815	84164
1	287427017	6816	84800
1	287470544	6817	84164
1	287513925	6818	84111
1	287557527	6819	84906
1	287601133	6820	84005
1	287644919	6821	85383
1	287688651	6822	84535
1	287732154	6823	84535
1	287775655	6824	84376
1	287819391	6825	85277
1	287863127	6826	84800
1	287906397	6827	83316
1	287949684	6828	84111
1	287993077	6829	84323
1	288036653	6830	84641
1	288080157	6831	84164
1	288123787	6832	84588
1	288167611	6833	85171
1	288211033	6834	83952
1	288254663	6835	84853
1	288298289	6836	84270
1	288341932	6837	85065
1	288385710	6838	85065
1	288429240	6839	84058
1	288472746	6840	84906
1	288516285	6841	84058
1	288559661	6842	84588
1	288603293	6843	84535
1	288646861	6844	84058
1	288690305	6845	84482
1	288733925	6846	84800
1	288777333	6847	84323
1	288821012	6848	84535
1	288864540	6849	84482
1	288908034	6850	84376
1	288951525	6851	84535
1	288994874	6852	84111
1	289038296	6853	84005
1	289081551	6854	83740
1	289125059	6855	84641
1	289168359	6856	83740
1	289211897	6857	84853
1	289255366	6858	84482
1	289298960	6859	84376
1	289342524	6860	84641
1	289386038	6861	84323
1	289429436	6862	84429
1	289472819	6863	84429
1	289516205	6864	84164
1	289559545	6865	83687
1	289603024	6866	84482
1	289646652	6867	84588
1	289690242	6868	84694
1	289733639	6869	84217
1	289777175	6870	84429
1	289820705	6871	85012
1	289864000	6872	83634
1	289907385	6873	84058
1	289950921	6874	84694
1	289994577	6875	84800
1	290038150	6876	84588
1	290081542	6877	83952
1	290124956	6878	84906
1	290168431	6879	83952
1	290212006	6880	85012
1	290255451	6881	84270
1	290298888	6882	84217
1	290342645	6883	84906
1	290386177	6884	84482
1	290429662	6885	84270
1	290473088	6886	84641
1	290516643	6887	84058
1	290560126	6888	85012
1	290603641	6889	84429
1	290647244	6890	84535
1	290690585	6891	84164
1	290733925	6892	84111
1	290777422	6893	84376
1	290820846	6894	83740
1	290864417	6895	84800
1	290907585	6896	83051
1	290950744	6897	84270
1	290994160	6898	84217
1	291037629	6899	84323
1	291081152	6900	84641
1	291124712	6901	84641
1	291168463	6902	85065
1	291212101	6903	84323
1	291255998	6904	85383
1	291299816	6905	85065
1	291343342	6906	84482
1	291386968	6907	84482
1	291430363	6908	83952
1	291473932	6909	84747
1	291517171	6910	83475
1	291560598	6911	84641
1	291604292	6912	84641
1	291647976	6913	84694
1	291691627	6914	84747
1	291735283	6915	84535
1	291778922	6916	85065
1	291822467	6917	84429
1	291865959	6918	84111
1	291909402	6919	84111
1	291952927	6920	84906
1	291996629	6921	84747
1	292040029	6922	83793
1	292083679	6923	85118
1	292127295	6924	84376
1	292170892	6925	84482
1	292214474	6926	84853
1	292258022	6927	84376
1	292301470	6928	83899
1	292344960	6929	84482
1	292388663	6930	85065
1	292432179	6931	84005
1	292475750	6932	84588
1	292519463	6933	85065
1	292563432	6934	85330
1	292607058	6935	84376
1	292650739	6936	84747
1	292694372	6937	84376
1	292738064	6938	84694
1	292781739	6939	84800
1	292825409	6940	84959
1	292869130	6941	84588
1	292912734	6942	84694
1	292956454	6943	85224
1	293000142	6944	84270
1	293043746	6945	84535
1	293087480	6946	84694
1	293130937	6947	84376
1	293174529	6948	84429
1	293218132	6949	84800
1	293261680	6950	84429
1	293305324	6951	84853
1	293348947	6952	84694
1	293392300	6953	83528
1	293435883	6954	84747
1	293479650	6955	85065
1	293523328	6956	84164
1	293566972	6957	85224
1	293610542	6958	84005
1	293653934	6959	84376
1	293697402	6960	84482
1	293740763	6961	83687
1	293784133	6962	84111
1	293827506	6963	83952
1	293871134	6964	84694
1	293914696	6965	84535
1	293958500	6966	85118
1	294002387	6967	84800
1	294046010	6968	85118
1	294089584	6969	83846
1	294133020	6970	84376
1	294176731	6971	84853
1	294220745	6972	85754
1	294264360	6973	84588
1	294307939	6974	84376
1	294351529	6975	84217
1	294395074	6976	84959
1	294438805	6977	84800
1	294482179	6978	83793
1	294525843	6979	84906
1	294569434	6980	84800
1	294613010	6981	84323
1	294656674	6982	85012
1	294700445	6983	84959
1	294744334	6984	85118
1	294787889	6985	84217
1	294831375	6986	84535
1	294875112	6987	84800
1	294918758	6988	84588
1	294962247	6989	84376
1	295006011	6990	84800
1	295049637	6991	84535
1	295093123	6992	84058
1	295136881	6993	85489
1	295180379	6994	83687
1	295223943	6995	84959
1	295267483	6996	84270
1	295311187	6997	84747
1	295354837	6998	84906
1	295398396	6999	84111
1	295442036	7000	85065
1	295485635	7001	84429
1	295529216	7002	84217
1	295572933	7003	85065
1	295616738	7004	85330
1	295660456	7005	84694
1	295704151	7006	84694
1	295747817	7007	84800
1	295791398	7008	84111
1	295834865	7009	84535
1	295878539	7010	84747
1	295922242	7011	84694
1	295965672	7012	84005
1	296009168	7013	84429
1	296052855	7014	84588
1	296096466	7015	84482
1	296140064	7016	84588
1	296183580	7017	84588
1	296227057	7018	83899
1	296270544	7019	84535
1	296314220	7020	84906
1	296357965	7021	84535
1	296401545	7022	84853
1	296444916	7023	83846
1	296488433	7024	84694
1	296531688	7025	83634
1	296575195	7026	84429
1	296618459	7027	83899
1	296661788	7028	84005
1	296705386	7029	84800
1	296749001	7030	84800
1	296792601	7031	84747
1	296836175	7032	84323
1	296879732	7033	84694
1	296923174	7034	84005
1	296966820	7035	84641
1	297010443	7036	84588
1	297053881	7037	84058
1	297097418	7038	84641
1	297141231	7039	85171
1	297185111	7040	85012
1	297228837	7041	84588
1	297272697	7042	85171
1	297316653	7043	85489
1	297360349	7044	84535
1	297403960	7045	84800
1	297447273	7046	83422
1	297490739	7047	84853
1	297534345	7048	84641
1	297577951	7049	84111
1	297621719	7050	85489
1	297665243	7051	84164
1	297709036	7052	85118
1	297752384	7053	83846
1	297795560	7054	83634
1	297838968	7055	84429
1	297882616	7056	84588
1	297926097	7057	84482
1	297969444	7058	83528
1	298013208	7059	85701
1	298056860	7060	83846
1	298100419	7061	84694
1	298143887	7062	84005
1	298187612	7063	85383
1	298231105	7064	84005
1	298274439	7065	84270
1	298317760	7066	83846
1	298361041	7067	83793
1	298404355	7068	83952
1	298447653	7069	83952
1	298491100	7070	84376
1	298534689	7071	84853
1	298578384	7072	84959
1	298622247	7073	84906
1	298665629	7074	83687
1	298709339	7075	85436
1	298752845	7076	83952
1	298796255	7077	84641
1	298839953	7078	84217
1	298883475	7079	84694
1	298927103	7080	84959
1	298970586	7081	84217
1	299014006	7082	84058
1	299057523	7083	85171
1	299101071	7084	83740
1	299144523	7085	85171
1	299187862	7086	83634
1	299231054	7087	83687
1	299274618	7088	84800
1	299318042	7089	83899
1	299361403	7090	84588
1	299404564	7091	83475
1	299447776	7092	83952
1	299491036	7093	83793
1	299534308	7094	84005
1	299577540	7095	83793
1	299620911	7096	84217
1	299664166	7097	83475
1	299707547	7098	84376
1	299750991	7099	84376
1	299794398	7100	84164
1	299837946	7101	84588
1	299881373	7102	84217
1	299924911	7103	84482
1	299968384	7104	84482
1	300011967	7105	84641
1	300055577	7106	84270
1	300099089	7107	84588
1	300142684	7108	84588
1	300186199	7109	84535
1	300229703	7110	84641
1	300273498	7111	84800
1	300317134	7112	84588
1	300360693	7113	84588
1	300404103	7114	84376
1	300447581	7115	84588
1	300490946	7116	83528
1	300534308	7117	84694
1	300577664	7118	83793
1	300621184	7119	85012
1	300664875	7120	84429
1	300708425	7121	84853
1	300752043	7122	84747
1	300795524	7123	84111
1	300838897	7124	84111
1	300882016	7125	84058
1	300925308	7126	83793
1	300968700	7127	84217
1	301012165	7128	84058
1	301055649	7129	84906
1	301099213	7130	84323
1	301142555	7131	84482
1	301186097	7132	84217
1	301229737	7133	85065
1	301273457	7134	84376
1	301317101	7135	84800
1	301360585	7136	84376
1	301404152	7137	84800
1	301447928	7138	84959
1	301491354	7139	84270
1	301534778	7140	84217
1	301578426	7141	85012
1	301621952	7142	84111