version 2
run QLearnCC-3-20100909-15:00:14-2232
attr configname QLearnCC
attr datetime 20100909-15:00:14
attr delay 1000ms
attr experiment QLearnCC
attr inifile D:/Developement/Oversim2/multic/simulations/omnetpp.ini
attr iterationvars $delay=1000ms
attr iterationvars2 "$delay=1000ms, $repetition=0"
attr measurement $delay=1000ms
attr network oversim.underlay.simpleunderlay.SimpleUnderlayNetwork
attr processid 2232
attr repetition 0
attr replication #0
attr resultdir results
attr runnumber 3
attr seedset 3

vector 1  SimpleUnderlayNetwork.globalObserver.globalStatistics  incoming_bytes  ETV
vector 2  SimpleUnderlayNetwork.globalObserver.globalStatistics  drops  ETV
vector 3  SimpleUnderlayNetwork.globalObserver.globalStatistics  delayed_acks  ETV
vector 4  SimpleUnderlayNetwork.globalObserver.globalStatistics  timetotimeouts  ETV
vector 5  SimpleUnderlayNetwork.globalObserver.globalStatistics  9rateOf1To0  ETV
vector 6  SimpleUnderlayNetwork.globalObserver.globalStatistics  max9RateOf1To0  ETV
vector 7  SimpleUnderlayNetwork.globalObserver.globalStatistics  9rateOf1To1  ETV
vector 8  SimpleUnderlayNetwork.globalObserver.globalStatistics  max9RateOf1To1  ETV
vector 9  SimpleUnderlayNetwork.globalObserver.globalStatistics  9rateOf1To2  ETV
vector 10  SimpleUnderlayNetwork.globalObserver.globalStatistics  max9RateOf1To2  ETV
vector 11  SimpleUnderlayNetwork.globalObserver.globalStatistics  9rateOf1To3  ETV
vector 12  SimpleUnderlayNetwork.globalObserver.globalStatistics  max9RateOf1To3  ETV
vector 13  SimpleUnderlayNetwork.globalObserver.globalStatistics  9rateOf1To4  ETV
vector 14  SimpleUnderlayNetwork.globalObserver.globalStatistics  max9RateOf1To4  ETV
vector 15  SimpleUnderlayNetwork.globalObserver.globalStatistics  9rateOf1To5  ETV
vector 16  SimpleUnderlayNetwork.globalObserver.globalStatistics  max9RateOf1To5  ETV
vector 17  SimpleUnderlayNetwork.globalObserver.globalStatistics  9rateOf1To6  ETV
vector 18  SimpleUnderlayNetwork.globalObserver.globalStatistics  max9RateOf1To6  ETV
vector 19  SimpleUnderlayNetwork.globalObserver.globalStatistics  9rateOf1To7  ETV
vector 20  SimpleUnderlayNetwork.globalObserver.globalStatistics  max9RateOf1To7  ETV
vector 21  SimpleUnderlayNetwork.globalObserver.globalStatistics  9rateOf1To8  ETV
vector 22  SimpleUnderlayNetwork.globalObserver.globalStatistics  max9RateOf1To8  ETV
vector 23  SimpleUnderlayNetwork.globalObserver.globalStatistics  9rateOf1To9  ETV
vector 24  SimpleUnderlayNetwork.globalObserver.globalStatistics  max9RateOf1To9  ETV
vector 25  SimpleUnderlayNetwork.globalObserver.globalStatistics  1rate  ETV
vector 26  SimpleUnderlayNetwork.globalObserver.globalStatistics  max2Rate  ETV
vector 27  SimpleUnderlayNetwork.globalObserver.globalStatistics  "GlobalNodeList: Number of nodes"  ETV
vector 28  SimpleUnderlayNetwork.globalObserver.globalStatistics  "GlobalNodeList: Number of bootstrapped malicious nodes"  ETV
1	235096559	6019	84058
1	235139708	6020	83369
1	235183003	6021	82680
1	235226239	6022	84005
1	235269368	6023	83528
1	235312718	6024	84111
1	235355947	6025	83687
1	235399187	6026	84111
1	235442343	6027	82627
1	235485352	6028	83899
1	235528598	6029	83581
1	235571788	6030	83793
1	235615018	6031	81567
1	235658098	6032	83581
1	235701317	6033	84005
1	235744436	6034	84429
1	235787744	6035	83793
1	235831038	6036	83051
1	235874359	6037	82892
1	235917699	6038	84694
1	235961022	6039	84641
1	236004359	6040	84164
1	236047606	6041	84111
1	236090941	6042	83263
1	236134439	6043	83846
1	236177775	6044	82998
1	236221245	6045	85277
1	236264513	6046	83899
1	236307734	6047	83104
1	236351082	6048	82945
1	236394347	6049	84111
1	236437690	6050	83528
1	236480905	6051	83210
1	236524210	6052	83475
1	236567431	6053	83793
1	236610896	6054	84800
1	236654468	6055	84111
1	236697996	6056	84694
1	236741528	6057	84429
1	236785130	6058	84111
1	236828590	6059	83581
1	236872148	6060	83528
1	236915650	6061	84694
1	236958991	6062	84217
1	237002378	6063	84535
1	237046050	6064	84959
1	237089390	6065	83104
1	237132771	6066	82786
1	237176272	6067	84747
1	237219624	6068	84800
1	237262929	6069	83581
1	237306192	6070	82892
1	237349530	6071	83157
1	237392931	6072	84217
1	237436373	6073	84323
1	237479815	6074	84270
1	237523089	6075	84747
1	237566483	6076	84323
1	237609884	6077	83687
1	237653232	6078	83581
1	237696723	6079	83581
1	237740107	6080	85224
1	237783516	6081	84058
1	237826886	6082	83952
1	237870359	6083	83687
1	237913857	6084	84164
1	237957284	6085	83475
1	238000453	6086	84747
1	238043685	6087	83316
1	238087041	6088	82097
1	238130404	6089	84323
1	238173656	6090	84376
1	238217066	6091	84058
1	238260362	6092	83793
1	238303622	6093	83687
1	238347074	6094	84588
1	238390333	6095	82839
1	238433454	6096	83263
1	238476775	6097	83475
1	238520009	6098	83422
1	238563411	6099	85065
1	238606690	6100	83740
1	238650031	6101	83369
1	238693361	6102	83528
1	238736783	6103	84429
1	238780322	6104	84641
1	238823785	6105	84482
1	238867302	6106	83475
1	238910743	6107	84058
1	238954184	6108	83846
1	238997598	6109	82627
1	239040874	6110	84111
1	239084226	6111	84270
1	239127668	6112	84058
1	239171032	6113	84005
1	239214434	6114	84270
1	239257926	6115	83369
1	239301283	6116	82839
1	239344648	6117	83793
1	239387877	6118	84323
1	239431174	6119	82786
1	239474664	6120	85330
1	239517979	6121	83157
1	239561358	6122	82998
1	239604872	6123	84323
1	239648142	6124	83634
1	239691332	6125	83528
1	239734676	6126	83051
1	239777972	6127	82680
1	239821335	6128	83051
1	239864723	6129	84747
1	239908063	6130	83899
1	239951245	6131	83634
1	239994644	6132	83740
1	240038157	6133	83952
1	240081554	6134	84217
1	240124864	6135	83528
1	240168131	6136	83369
1	240211335	6137	82945
1	240254717	6138	83899
1	240297944	6139	83104
1	240341282	6140	83369
1	240384444	6141	83528
1	240427647	6142	83846
1	240470947	6143	82786
1	240514329	6144	84005
1	240557646	6145	83528
1	240601065	6146	84323
1	240644444	6147	83952
1	240687794	6148	83687
1	240731162	6149	82627
1	240774514	6150	83157
1	240817913	6151	84164
1	240861269	6152	84588
1	240904507	6153	84800
1	240947932	6154	82892
1	240991408	6155	84270
1	241034791	6156	82945
1	241078011	6157	84058
1	241121230	6158	83422
1	241164488	6159	83422
1	241207822	6160	82998
1	241251131	6161	84058
1	241294575	6162	83475
1	241337972	6163	83740
1	241381159	6164	83634
1	241424357	6165	83104
1	241467522	6166	83210
1	241510926	6167	84217
1	241554272	6168	84164
1	241597521	6169	84270
1	241640841	6170	84164
1	241684272	6171	82309
1	241727611	6172	83210
1	241770861	6173	83210
1	241814159	6174	84164
1	241857504	6175	83581
1	241900634	6176	83369
1	241943780	6177	84217
1	241987025	6178	83581
1	242030341	6179	83740
1	242073752	6180	83475
1	242117096	6181	83475
1	242160407	6182	83952
1	242203745	6183	83369
1	242247243	6184	84111
1	242290497	6185	82574
1	242333872	6186	83316
1	242377382	6187	85277
1	242420991	6188	84747
1	242464467	6189	85012
1	242508135	6190	83634
1	242551685	6191	84058
1	242595211	6192	84164
1	242638721	6193	84058
1	242682243	6194	84694
1	242725734	6195	84005
1	242769343	6196	84270
1	242812838	6197	83157
1	242856372	6198	84376
1	242899884	6199	84111
1	242943387	6200	85171
1	242987007	6201	84111
1	243030483	6202	82786
1	243074034	6203	84482
1	243117465	6204	84482
1	243161159	6205	83528
1	243204668	6206	84482
1	243248186	6207	83846
1	243291672	6208	84058
1	243335139	6209	83952
1	243378827	6210	85065
1	243422446	6211	85807
1	243466088	6212	84164
1	243509765	6213	84058
1	243553490	6214	84747
1	243597154	6215	84535
1	243640917	6216	84482
1	243684548	6217	84323
1	243728046	6218	84429
1	243771756	6219	84270
1	243815235	6220	83634
1	243858636	6221	84641
1	243902114	6222	83475
1	243945473	6223	83157
1	243988828	6224	84164
1	244032270	6225	83899
1	244075723	6226	84641
1	244119088	6227	83369
1	244162785	6228	83687
1	244206337	6229	84058
1	244249866	6230	84588
1	244293248	6231	83899
1	244336696	6232	85065
1	244380389	6233	83952
1	244423936	6234	84376
1	244467479	6235	84005
1	244511064	6236	84111
1	244554486	6237	84217
1	244597799	6238	83369
1	244641185	6239	82998
1	244684761	6240	83634
1	244728005	6241	84111
1	244771274	6242	83422
1	244814574	6243	83899
1	244857972	6244	84058
1	244901401	6245	83634
1	244944746	6246	84270
1	244988073	6247	84111
1	245031508	6248	83740
1	245074921	6249	83528
1	245118155	6250	83687
1	245161471	6251	83740
1	245204870	6252	84270
1	245248244	6253	84111
1	245291699	6254	84164
1	245335223	6255	82733
1	245378696	6256	84058
1	245421927	6257	83528
1	245465389	6258	84323
1	245508921	6259	85065
1	245552273	6260	83104
1	245595869	6261	84747
1	245639402	6262	83687
1	245682945	6263	83793
1	245726387	6264	84058
1	245769825	6265	83952
1	245813259	6266	84323
1	245856768	6267	83687
1	245900527	6268	84800
1	245944146	6269	83899
1	245987661	6270	85065
1	246031165	6271	83899
1	246074800	6272	84111
1	246118375	6273	84641
1	246161966	6274	82892
1	246205348	6275	83581
1	246248824	6276	83952
1	246292382	6277	84429
1	246336079	6278	84641
1	246379645	6279	83740
1	246423120	6280	84694
1	246466586	6281	83157
1	246510098	6282	83210
1	246553671	6283	83846
1	246597393	6284	85224
1	246641045	6285	85118
1	246684722	6286	85118
1	246728535	6287	84747
1	246772282	6288	84482
1	246815950	6289	83210
1	246859552	6290	83263
1	246903189	6291	85383
1	246946689	6292	82627
1	246990305	6293	84747
1	247034132	6294	85012
1	247077732	6295	83687
1	247121333	6296	84747
1	247164827	6297	83422
1	247208469	6298	84694
1	247252041	6299	84058
1	247295690	6300	84906
1	247339381	6301	84164
1	247382949	6302	84111
1	247426687	6303	84588
1	247470227	6304	84535
1	247513861	6305	83581
1	247557450	6306	83952
1	247601000	6307	83634
1	247644507	6308	84588
1	247688002	6309	83687
1	247731583	6310	84800
1	247775159	6311	83581
1	247818794	6312	83740
1	247862440	6313	84959
1	247906040	6314	84482
1	247949464	6315	84376
1	247993079	6316	82892
1	248036344	6317	83263
1	248079859	6318	83952
1	248123328	6319	84853
1	248166677	6320	83740
1	248210110	6321	84058
1	248253565	6322	83422
1	248297176	6323	84588
1	248340596	6324	83422
1	248383969	6325	84747
1	248427534	6326	83369
1	248471192	6327	84429
1	248514769	6328	84217
1	248558245	6329	84323
1	248601968	6330	84270
1	248645767	6331	84959
1	248689382	6332	84694
1	248732937	6333	83952
1	248776599	6334	84111
1	248820220	6335	84800
1	248863750	6336	83263
1	248907298	6337	83263
1	248950792	6338	84217
1	248994328	6339	84270
1	249037836	6340	83422
1	249081471	6341	84482
1	249125162	6342	84641
1	249168824	6343	83793
1	249212335	6344	83846
1	249256108	6345	85171
1	249299646	6346	83846
1	249343261	6347	83846
1	249386949	6348	84482
1	249430683	6349	84959
1	249474206	6350	82521
1	249517738	6351	83263
1	249561387	6352	84906
1	249604998	6353	85012
1	249648416	6354	84588
1	249692035	6355	83846
1	249735589	6356	83316
1	249779183	6357	84217
1	249822803	6358	83952
1	249866319	6359	83528
1	249909927	6360	84800
1	249953567	6361	84111
1	249997345	6362	84588
1	250040954	6363	84482
1	250084690	6364	84535
1	250128392	6365	83740
1	250172065	6366	84588
1	250215709	6367	85171
1	250259257	6368	83104
1	250302851	6369	83687
1	250346367	6370	83740
1	250389854	6371	83846
1	250433551	6372	83952
1	250477152	6373	84641
1	250520741	6374	84164
1	250564464	6375	83899
1	250608247	6376	85277
1	250651917	6377	84217
1	250695667	6378	84747
1	250739507	6379	83846
1	250783495	6380	86125
1	250827256	6381	84694
1	250871054	6382	83740
1	250914875	6383	85224
1	250958346	6384	83528
1	251001809	6385	83422
1	251045385	6386	83899
1	251089039	6387	84111
1	251132561	6388	84270
1	251175992	6389	84641
1	251219546	6390	83793
1	251263127	6391	83899
1	251306758	6392	85118
1	251350331	6393	83740
1	251393791	6394	82945
1	251437307	6395	83422
1	251480864	6396	84694
1	251524675	6397	85966
1	251568240	6398	85065
1	251611835	6399	83210
1	251655419	6400	84005
1	251698848	6401	84217
1	251742256	6402	83210
1	251785828	6403	84217
1	251829134	6404	83528
1	251872520	6405	84482
1	251915850	6406	83475
1	251959166	6407	82892
1	252002465	6408	83263
1	252045591	6409	83952
1	252088860	6410	83263
1	252132050	6411	83687
1	252175454	6412	84005
1	252218655	6413	83369
1	252261978	6414	84058
1	252305235	6415	83316
1	252348626	6416	84376
1	252392107	6417	84694
1	252435444	6418	83104
1	252478817	6419	83528
1	252522259	6420	83793
1	252565492	6421	83740
1	252608723	6422	82362
1	252651944	6423	83475
1	252695202	6424	83740
1	252738633	6425	85012
1	252781917	6426	83528
1	252825341	6427	84270
1	252868763	6428	83104
1	252912130	6429	83899
1	252955566	6430	83475
1	252998992	6431	83899
1	253042510	6432	85383
1	253085802	6433	83687
1	253129320	6434	82680
1	253172746	6435	84482
1	253216084	6436	84376
1	253259365	6437	83104
1	253302813	6438	83051
1	253346103	6439	83899
1	253389223	6440	82786
1	253432543	6441	84323
1	253475816	6442	83475
1	253519078	6443	84323
1	253562438	6444	82945
1	253605665	6445	83051
1	253648994	6446	83899
1	253692325	6447	83793
1	253735575	6448	82574
1	253778846	6449	84058
1	253822263	6450	84482
1	253865635	6451	83634
1	253909069	6452	84217
1	253952280	6453	82892
1	253995706	6454	83528
1	254039091	6455	85171
1	254082291	6456	83369
1	254125647	6457	83104
1	254169009	6458	82627
1	254212448	6459	83740
1	254255803	6460	85330
1	254299250	6461	83422
1	254342531	6462	83316
1	254385809	6463	82256
1	254429411	6464	84588
1	254472850	6465	84376
1	254516242	6466	83316
1	254559566	6467	83740
1	254602801	6468	83528
1	254646228	6469	82786
1	254689635	6470	83581
1	254732859	6471	84005
1	254776195	6472	83793
1	254819703	6473	84058
1	254862995	6474	84164
1	254906485	6475	82839
1	254949727	6476	83263
1	254992936	6477	82733
1	255036222	6478	82256
1	255079446	6479	83051
1	255122739	6480	84164
1	255166078	6481	84164
1	255209490	6482	84005
1	255252863	6483	84641
1	255296492	6484	84535
1	255340027	6485	83104
1	255383549	6486	84429
1	255427008	6487	83581
1	255470471	6488	84429
1	255514034	6489	83634
1	255557251	6490	83316
1	255600613	6491	83369
1	255643876	6492	82309
1	255687188	6493	84323
1	255730266	6494	82839
1	255773472	6495	84111
1	255816695	6496	82574
1	255859931	6497	83422
1	255902981	6498	83846
1	255946076	6499	82097
1	255989059	6500	82097
1	256032078	6501	81938
1	256075325	6502	84482
1	256118392	6503	83475
1	256161693	6504	83740
1	256205049	6505	84959
1	256248435	6506	82892
1	256291969	6507	84164
1	256335484	6508	83740
1	256378929	6509	83104
1	256422275	6510	84058
1	256465539	6511	83369
1	256508674	6512	82998
1	256552016	6513	82786
1	256595430	6514	84535
1	256638766	6515	84005
1	256682040	6516	82150
1	256725231	6517	83369
1	256768510	6518	83263
1	256811772	6519	84853
1	256855198	6520	83899
1	256898520	6521	83793
1	256941904	6522	83316
1	256985390	6523	83104
1	257028606	6524	83369
1	257071701	6525	83369
1	257114899	6526	82998
1	257158204	6527	83793
1	257201550	6528	83899
1	257244977	6529	84005
1	257288293	6530	84747
1	257331555	6531	82733
1	257374827	6532	83634
1	257417986	6533	83422
1	257460939	6534	82468
1	257504006	6535	81514
1	257547001	6536	84005
1	257590006	6537	82998
1	257633133	6538	81991
1	257676297	6539	83846
1	257719370	6540	84058
1	257762729	6541	85436
1	257806025	6542	82627
1	257849242	6543	83475
1	257892549	6544	84429
1	257935541	6545	82415
1	257978780	6546	84164
1	258021983	6547	83528
1	258065201	6548	84058
1	258108422	6549	82786
1	258151402	6550	82627
1	258194542	6551	82945
1	258237717	6552	83475
1	258280900	6553	83316
1	258324011	6554	83528
1	258367142	6555	83157
1	258410181	6556	82998
1	258453257	6557	83104
1	258496401	6558	84323
1	258539440	6559	82945
1	258582289	6560	82521
1	258625324	6561	82150
1	258668519	6562	84058
1	258711635	6563	83210
1	258754695	6564	83157
1	258797954	6565	83528
1	258841155	6566	83475
1	258884362	6567	84111
1	258927534	6568	83740
1	258970678	6569	82044
1	259013933	6570	84111
1	259057147	6571	84111
1	259100407	6572	83369
1	259143660	6573	83263
1	259186871	6574	83104
1	259230042	6575	83210
1	259273202	6576	83581
1	259316365	6577	82839
1	259359400	6578	81885
1	259402595	6579	82627
1	259445683	6580	84270
1	259488641	6581	82044
1	259531703	6582	84005
1	259574884	6583	82998
1	259618129	6584	83475
1	259661269	6585	83210
1	259704444	6586	82839
1	259747509	6587	83899
1	259790836	6588	82892
1	259834090	6589	83316
1	259877240	6590	82998
1	259920351	6591	83846
1	259963668	6592	83581
1	260006963	6593	82627
1	260050335	6594	84906
1	260093586	6595	83581
1	260136782	6596	82892
1	260180061	6597	83104
1	260223234	6598	82150
1	260266275	6599	83793
1	260309670	6600	83528
1	260352920	6601	83528
1	260395817	6602	82945
1	260439256	6603	83051
1	260482499	6604	83528
1	260525660	6605	83316
1	260568782	6606	83051
1	260611988	6607	83634
1	260655146	6608	82892
1	260698469	6609	83581
1	260741686	6610	83263
1	260785025	6611	83634
1	260828373	6612	83687
1	260871736	6613	84694
1	260915193	6614	83952
1	260958652	6615	83952
1	261002066	6616	83210
1	261045346	6617	83793
1	261088505	6618	82468
1	261131891	6619	83793
1	261175167	6620	83634
1	261218501	6621	84217
1	261261817	6622	82256
1	261305244	6623	83475
1	261348498	6624	83104
1	261391822	6625	84588
1	261435296	6626	84429
1	261478739	6627	84164
1	261522307	6628	83740
1	261565719	6629	83740
1	261609069	6630	82203
1	261652469	6631	83475
1	261695838	6632	84058
1	261739165	6633	84694
1	261782517	6634	82892
1	261825961	6635	84323
1	261869171	6636	82786
1	261912386	6637	83475
1	261955700	6638	83369
1	261998838	6639	83528
1	262042172	6640	83634
1	262085554	6641	85065
1	262128845	6642	82468
1	262172176	6643	83793
1	262215476	6644	83263
1	262258383	6645	83634
1	262301512	6646	82309
1	262344715	6647	82892
1	262387772	6648	82945
1	262431045	6649	84164
1	262474084	6650	82892
1	262517218	6651	83369
1	262560294	6652	83528
1	262603444	6653	83634
1	262646714	6654	82998
1	262690080	6655	84376
1	262733387	6656	83369
1	262776458	6657	83316
1	262819661	6658	82733
1	262862712	6659	83210
1	262905836	6660	83316
1	262948891	6661	82309
1	262991835	6662	81673
1	263034840	6663	83369
1	263077898	6664	83263
1	263121077	6665	83369
1	263164268	6666	82839
1	263207507	6667	84058
1	263250638	6668	83528
1	263294022	6669	83793
1	263337193	6670	82892
1	263380559	6671	83793
1	263423870	6672	83528
1	263467198	6673	84111
1	263510441	6674	84058
1	263553770	6675	83528
1	263597216	6676	84323
1	263640507	6677	83316
1	263684068	6678	83899
1	263727515	6679	84111
1	263770809	6680	83369
1	263814126	6681	83740
1	263857561	6682	84111
1	263900897	6683	83687
1	263944174	6684	82521
1	263987312	6685	83316
1	264030311	6686	82733
1	264073499	6687	82839
1	264116727	6688	85012
1	264159904	6689	82521
1	264202932	6690	82468
1	264245865	6691	82839
1	264288954	6692	82998
1	264332011	6693	83687
1	264375021	6694	82521
1	264418112	6695	82786
1	264461226	6696	83634
1	264504232	6697	82521
1	264547326	6698	82309
1	264590378	6699	84164
1	264633567	6700	83475
1	264676619	6701	83263
1	264719897	6702	83687
1	264763251	6703	84535
1	264806360	6704	82786
1	264849768	6705	84058
1	264892899	6706	82203
1	264936134	6707	83846
1	264979484	6708	84959
1	265022686	6709	83846
1	265065644	6710	81991
1	265108661	6711	82574
1	265151991	6712	83846
1	265195239	6713	84217
1	265238318	6714	83634
1	265281595	6715	83581
1	265324862	6716	83793
1	265368233	6717	83263
1	265411547	6718	84800
1	265454683	6719	82680
1	265497872	6720	82945
1	265540924	6721	82574
1	265584138	6722	83952
1	265627247	6723	83899
1	265670610	6724	83634
1	265713721	6725	83157
1	265757086	6726	84111
1	265800286	6727	83316
1	265843509	6728	82627
1	265886753	6729	83581
1	265930163	6730	85118
1	265973534	6731	83210
1	266017069	6732	84429
1	266060696	6733	84217
1	266104335	6734	85065
1	266147979	6735	84111
1	266191435	6736	83634
1	266234958	6737	84376
1	266278322	6738	82998
1	266321941	6739	84959
1	266365145	6740	82574
1	266408439	6741	84270
1	266451732	6742	83581
1	266495204	6743	83104
1	266538592	6744	84429
1	266582001	6745	84005
1	266625452	6746	83899
1	266669010	6747	85065
1	266712564	6748	85118
1	266756044	6749	83422
1	266799619	6750	83846
1	266843166	6751	83475
1	266886596	6752	83316
1	266930135	6753	84694
1	266973490	6754	83899
1	267016988	6755	84535
1	267060494	6756	83687
1	267104244	6757	84588
1	267147938	6758	83846
1	267191534	6759	84853
1	267235293	6760	84111
1	267278866	6761	83899
1	267322409	6762	84058
1	267365933	6763	83952
1	267409512	6764	85118
1	267452976	6765	84429
1	267496323	6766	83316
1	267539866	6767	83687
1	267583322	6768	82786
1	267626786	6769	85436
1	267670132	6770	83263
1	267713815	6771	84005
1	267757357	6772	84164
1	267801024	6773	84535
1	267844717	6774	84111
1	267888233	6775	84800
1	267931807	6776	83422
1	267975289	6777	83899
1	268018722	6778	84217
1	268062261	6779	84800
1	268105907	6780	84694
1	268149390	6781	83687
1	268192963	6782	84482
1	268236561	6783	83528
1	268280175	6784	83899
1	268323683	6785	84111
1	268367330	6786	85171
1	268410822	6787	83846
1	268454386	6788	84588
1	268497979	6789	84217
1	268541619	6790	84058
1	268585263	6791	83740
1	268628800	6792	83952
1	268672304	6793	84694
1	268715877	6794	84429
1	268759686	6795	84482
1	268803338	6796	85224
1	268847128	6797	85224
1	268890811	6798	84641
1	268934550	6799	84482
1	268978275	6800	84641
1	269021946	6801	84588
1	269065390	6802	84164
1	269108973	6803	84376
1	269152371	6804	83316
1	269195707	6805	84376
1	269239022	6806	82733
1	269282272	6807	83210
1	269325730	6808	83793
1	269368918	6809	83952
1	269412240	6810	83952
1	269455679	6811	83422
1	269499089	6812	85118
1	269542534	6813	83210
1	269585881	6814	83952
1	269629294	6815	84058
1	269672889	6816	83793
1	269716335	6817	83952
1	269759743	6818	84111
1	269803261	6819	84641
1	269846695	6820	83581
1	269890223	6821	84323
1	269933591	6822	83422
1	269977009	6823	83687
1	270020291	6824	82945
1	270063685	6825	84323
1	270107052	6826	84217
1	270150358	6827	83528
1	270193706	6828	83369
1	270237025	6829	83899
1	270280548	6830	83952
1	270324057	6831	84482
1	270367537	6832	83687
1	270410981	6833	84588
1	270454355	6834	83846
1	270497982	6835	82786
1	270541422	6836	84482
1	270584937	6837	84588
1	270628489	6838	83316
1	270672058	6839	83528
1	270715585	6840	83846
1	270759085	6841	84217
1	270802577	6842	84535
1	270846240	6843	84005
1	270889767	6844	84906
1	270933134	6845	82044
1	270976680	6846	83581
1	271020214	6847	83263
1	271063773	6848	84535
1	271107185	6849	85224
1	271150851	6850	84058
1	271194337	6851	83687
1	271237941	6852	83422
1	271281465	6853	84111
1	271324859	6854	84058
1	271368378	6855	83157
1	271412067	6856	84323
1	271455698	6857	84376
1	271499176	6858	83634
1	271542948	6859	85754
1	271586706	6860	83528
1	271630353	6861	85012
1	271673788	6862	82362
1	271717441	6863	83634
1	271761002	6864	82839
1	271804402	6865	83952
1	271848127	6866	84694
1	271891860	6867	84588
1	271935649	6868	85913
1	271979632	6869	85224
1	272023385	6870	83952
1	272067127	6871	83793
1	272110936	6872	84058
1	272154570	6873	84588
1	272198240	6874	85065
1	272242101	6875	84376
1	272285806	6876	83793
1	272329564	6877	84906
1	272373333	6878	85065
1	272417084	6879	84217
1	272460869	6880	83793
1	272504562	6881	84323
1	272548317	6882	84800
1	272591985	6883	84323
1	272635691	6884	83899
1	272679382	6885	83899
1	272723202	6886	85171
1	272766869	6887	84164
1	272810665	6888	84906
1	272854492	6889	85118
1	272898286	6890	84429
1	272942182	6891	85171
1	272986183	6892	84323
1	273030028	6893	84800
1	273073749	6894	84005
1	273117555	6895	84641
1	273161394	6896	83793
1	273205358	6897	85913
1	273249102	6898	83846
1	273292732	6899	84111
1	273336663	6900	84535
1	273380364	6901	85065
1	273424220	6902	84323
1	273468037	6903	85595
1	273511931	6904	84376
1	273555678	6905	83210
1	273599456	6906	84641
1	273643313	6907	84058
1	273687002	6908	84535
1	273730725	6909	85542
1	273774524	6910	84005
1	273818374	6911	84429
1	273862313	6912	84588
1	273906180	6913	85171
1	273949853	6914	82786
1	273993611	6915	84800
1	274037348	6916	84535
1	274081119	6917	84747
1	274124972	6918	84376
1	274168759	6919	85171
1	274212600	6920	84694
1	274256433	6921	83899
1	274300268	6922	85118
1	274344080	6923	84217
1	274387923	6924	84323
1	274431791	6925	84535
1	274475706	6926	85330
1	274519400	6927	84853
1	274563203	6928	84694
1	274606981	6929	84323
1	274650806	6930	85224
1	274694765	6931	85277
1	274738584	6932	84111
1	274782402	6933	85118
1	274826226	6934	84906
1	274870182	6935	83899
1	274914141	6936	84164
1	274957876	6937	85648
1	275001672	6938	84535
1	275045589	6939	85012
1	275089534	6940	84588
1	275133631	6941	85542
1	275177768	6942	85012
1	275221784	6943	85542
1	275265674	6944	85224
1	275309533	6945	83740
1	275353420	6946	83528
1	275397177	6947	85383
1	275440906	6948	84588
1	275484658	6949	85118
1	275528402	6950	84641
1	275572213	6951	84588
1	275616031	6952	85012
1	275659939	6953	85171
1	275703818	6954	84959
1	275747515	6955	84270
1	275791316	6956	83846
1	275835026	6957	84641
1	275878639	6958	83687
1	275922383	6959	84853
1	275965979	6960	83634
1	276009830	6961	86602
1	276053543	6962	84535
1	276097277	6963	83687
1	276141052	6964	83952
1	276184803	6965	85436
1	276228402	6966	84217
1	276272212	6967	84376
1	276315946	6968	85118
1	276359586	6969	83952
1	276403238	6970	84853
1	276446779	6971	83263
1	276490256	6972	83899
1	276533497	6973	83157
1	276576938	6974	83952
1	276620385	6975	84111
1	276663781	6976	83952
1	276707260	6977	83740
1	276750732	6978	84058
1	276794219	6979	83899
1	276837764	6980	84853
1	276881128	6981	82468
1	276924528	6982	84005
1	276968081	6983	84217
1	277011575	6984	84164
1	277055211	6985	85277
1	277098910	6986	84323
1	277142421	6987	84535
1	277186038	6988	84376
1	277229558	6989	83740
1	277273019	6990	84111
1	277316707	6991	84482
1	277360153	6992	83952
1	277403741	6993	84217
1	277447377	6994	84164
1	277491043	6995	84482
1	277534636	6996	85224
1	277578175	6997	83422
1	277621700	6998	83899
1	277665433	6999	84164
1	277709030	7000	84164
1	277752758	7001	85595
1	277796426	7002	84959
1	277839962	7003	82839
1	277883615	7004	84164
1	277927253	7005	84429
1	277970920	7006	84217
1	278014497	7007	85012
1	278058080	7008	83687
1	278101627	7009	83899
1	278145341	7010	84217
1	278188892	7011	83210
1	278232396	7012	83899
1	278275962	7013	84323
1	278319420	7014	85224
1	278363014	7015	83369
1	278406564	7016	84588
1	278450240	7017	83952
1	278493519	7018	83528
1	278537097	7019	83846
1	278580672	7020	84800
1	278624370	7021	84853
1	278667906	7022	83740
1	278711508	7023	83952
1	278755084	7024	84906
1	278798625	7025	84270
1	278842274	7026	84482
1	278885732	7027	83899
1	278929332	7028	83687
1	278972909	7029	83899
1	279016333	7030	83104
1	279059868	7031	83740
1	279103462	7032	84906
1	279146881	7033	83528
1	279190504	7034	85701
1	279234228	7035	84005
1	279277807	7036	85118
1	279321396	7037	84641
1	279365049	7038	83369
1	279408605	7039	83899
1	279452046	7040	84005
1	279495504	7041	84376
1	279538976	7042	83263
1	279582561	7043	83369
1	279626012	7044	85330
1	279669628	7045	84111
1	279713296	7046	84217
1	279757143	7047	84747
1	279800958	7048	85436
1	279844697	7049	84217
1	279888385	7050	84906
1	279931959	7051	83793
1	279975948	7052	85383
1	280019605	7053	84641
1	280063367	7054	82998
1	280107087	7055	83952
1	280150683	7056	85065
1	280194320	7057	84535
1	280238190	7058	84111
1	280282018	7059	84747
1	280325918	7060	85277
1	280369792	7061	85754
1	280413702	7062	84482
1	280457611	7063	84058
1	280501534	7064	85807
1	280545453	7065	83952
1	280589258	7066	84270
1	280632904	7067	84429
1	280676950	7068	85171
1	280720953	7069	85807
1	280764928	7070	85489
1	280808525	7071	83263
1	280852202	7072	83422
1	280895850	7073	83475
1	280939337	7074	83157
1	280982932	7075	84535
1	281026438	7076	84005
1	281069969	7077	84535
1	281113704	7078	84164
1	281157355	7079	84058
1	281201275	7080	84164
1	281245013	7081	84959
1	281288907	7082	85277
1	281332766	7083	85542
1	281376552	7084	83634
1	281420450	7085	84376
1	281464183	7086	85171
1	281507989	7087	85118
1	281551881	7088	83899
1	281595630	7089	83952
1	281639681	7090	85436
1	281683511	7091	83899
1	281727390	7092	84906
1	281771274	7093	85012
1	281815301	7094	85171
1	281859130	7095	84217
1	281902796	7096	83634
1	281946597	7097	84747
1	281990449	7098	84482
1	282034100	7099	83740
1	282077770	7100	84588
1	282121387	7101	83581
1	282165067	7102	84535
1	282208617	7103	83899
1	282252079	7104	83581
1	282295611	7105	83528
1	282339108	7106	82998
1	282382588	7107	83634
1	282426186	7108	83475
1	282469777	7109	84800
1	282513414	7110	84641
1	282557024	7111	83793
1	282600749	7112	85171
1	282644519	7113	82627
1	282688243	7114	84747
1	282731945	7115	84482
1	282775663	7116	85224
1	282819355	7117	85012
1	282863263	7118	83740
1	282906995	7119	84535
1	282950662	7120	84270
1	282994442	7121	84800
1	283038219	7122	84641
1	283081968	7123	84323
1	283125831	7124	84747
1	283169492	7125	84217
1	283213285	7126	84217
1	283256975	7127	84747
1	283300855	7128	85012
1	283344641	7129	84853
1	283388376	7130	84906
1	283432054	7131	83846
1	283475709	7132	83528
1	283519321	7133	84217
1	283562854	7134	83899
1	283606297	7135	83051
1	283649892	7136	85542
1	283693362	7137	85224
1	283736946	7138	84747
1	283780637	7139	83634
1	283824378	7140	83581
1	283867918	7141	84376
1	283911313	7142	83581
1	283954741	7143	83263
1	283998268	7144	83740