version 2
run AimdCC-3-20100909-02:40:48-4124
attr configname AimdCC
attr datetime 20100909-02:40:48
attr experiment AimdCC
attr inifile D:/Developement/Oversim2/multic/simulations/omnetpp.ini
attr iterationvars $nhops=5
attr iterationvars2 "$nhops=5, $repetition=0"
attr measurement $nhops=5
attr network oversim.underlay.simpleunderlay.SimpleUnderlayNetwork
attr nhops 5
attr processid 4124
attr repetition 0
attr replication #0
attr resultdir results
attr runnumber 3
attr seedset 3

vector 1  SimpleUnderlayNetwork.globalObserver.globalStatistics  incoming_bytes  ETV
vector 2  SimpleUnderlayNetwork.globalObserver.globalStatistics  drops  ETV
vector 3  SimpleUnderlayNetwork.globalObserver.globalStatistics  delayed_acks  ETV
vector 4  SimpleUnderlayNetwork.globalObserver.globalStatistics  timetotimeouts  ETV
vector 5  SimpleUnderlayNetwork.globalObserver.globalStatistics  9rateOf1To0  ETV
vector 6  SimpleUnderlayNetwork.globalObserver.globalStatistics  max9RateOf1To0  ETV
vector 7  SimpleUnderlayNetwork.globalObserver.globalStatistics  9rateOf1To1  ETV
vector 8  SimpleUnderlayNetwork.globalObserver.globalStatistics  max9RateOf1To1  ETV
vector 9  SimpleUnderlayNetwork.globalObserver.globalStatistics  9rateOf1To2  ETV
vector 10  SimpleUnderlayNetwork.globalObserver.globalStatistics  max9RateOf1To2  ETV
vector 11  SimpleUnderlayNetwork.globalObserver.globalStatistics  9rateOf1To3  ETV
vector 12  SimpleUnderlayNetwork.globalObserver.globalStatistics  max9RateOf1To3  ETV
vector 13  SimpleUnderlayNetwork.globalObserver.globalStatistics  9rateOf1To4  ETV
vector 14  SimpleUnderlayNetwork.globalObserver.globalStatistics  max9RateOf1To4  ETV
vector 15  SimpleUnderlayNetwork.globalObserver.globalStatistics  9rateOf1To5  ETV
vector 16  SimpleUnderlayNetwork.globalObserver.globalStatistics  max9RateOf1To5  ETV
vector 17  SimpleUnderlayNetwork.globalObserver.globalStatistics  9rateOf1To6  ETV
vector 18  SimpleUnderlayNetwork.globalObserver.globalStatistics  max9RateOf1To6  ETV
vector 19  SimpleUnderlayNetwork.globalObserver.globalStatistics  9rateOf1To7  ETV
vector 20  SimpleUnderlayNetwork.globalObserver.globalStatistics  max9RateOf1To7  ETV
vector 21  SimpleUnderlayNetwork.globalObserver.globalStatistics  9rateOf1To8  ETV
vector 22  SimpleUnderlayNetwork.globalObserver.globalStatistics  max9RateOf1To8  ETV
vector 23  SimpleUnderlayNetwork.globalObserver.globalStatistics  9rateOf1To9  ETV
vector 24  SimpleUnderlayNetwork.globalObserver.globalStatistics  max9RateOf1To9  ETV
vector 25  SimpleUnderlayNetwork.globalObserver.globalStatistics  1rate  ETV
vector 26  SimpleUnderlayNetwork.globalObserver.globalStatistics  max2Rate  ETV
vector 27  SimpleUnderlayNetwork.globalObserver.globalStatistics  "GlobalNodeList: Number of nodes"  ETV
vector 28  SimpleUnderlayNetwork.globalObserver.globalStatistics  "GlobalNodeList: Number of bootstrapped malicious nodes"  ETV
1	100054050	6019	26023
1	100073541	6020	26129
1	100093232	6021	26447
1	100112328	6022	25546
1	100131813	6023	26076
1	100151470	6024	26500
1	100170970	6025	26182
1	100190414	6026	25811
1	100209155	6027	25546
1	100228579	6028	25811
1	100247844	6029	26076
1	100267126	6030	25652
1	100286509	6031	26288
1	100306085	6032	25917
1	100325295	6033	25917
1	100344647	6034	25917
1	100363992	6035	26076
1	100383635	6036	26129
1	100403410	6037	26659
1	100422500	6038	25546
1	100441879	6039	25758
1	100461206	6040	26235
1	100480632	6041	25864
1	100500009	6042	26182
1	100519186	6043	25917
1	100538394	6044	25864
1	100557307	6045	25069
1	100576232	6046	25334
1	100595209	6047	25334
1	100614203	6048	25599
1	100633378	6049	25652
1	100652674	6050	26023
1	100671642	6051	25122
1	100690771	6052	25917
1	100710036	6053	25864
1	100729401	6054	26182
1	100748637	6055	25705
1	100767641	6056	25334
1	100787029	6057	25970
1	100805994	6058	25440
1	100824880	6059	25546
1	100843803	6060	25387
1	100862921	6061	25493
1	100881873	6062	25228
1	100901260	6063	26129
1	100920334	6064	25493
1	100939388	6065	25652
1	100958503	6066	25493
1	100977494	6067	25228
1	100996698	6068	26129
1	101015258	6069	24963
1	101034431	6070	25811
1	101053919	6071	25970
1	101072669	6072	25016
1	101091644	6073	25546
1	101110009	6074	24698
1	101128947	6075	25387
1	101147940	6076	25387
1	101166717	6077	25281
1	101185549	6078	25175
1	101204658	6079	25493
1	101223953	6080	26288
1	101242769	6081	24857
1	101261704	6082	25546
1	101280695	6083	25493
1	101299622	6084	25387
1	101318920	6085	25917
1	101337759	6086	25387
1	101356780	6087	25281
1	101375855	6088	25811
1	101395641	6089	26447
1	101415382	6090	26606
1	101434326	6091	25175
1	101453384	6092	25599
1	101472374	6093	25652
1	101491369	6094	25228
1	101510671	6095	25917
1	101529820	6096	25652
1	101548816	6097	25387
1	101568235	6098	26235
1	101587286	6099	25705
1	101606564	6100	25599
1	101625652	6101	25811
1	101644858	6102	25705
1	101663682	6103	25122
1	101682595	6104	25493
1	101701379	6105	25546
1	101720101	6106	24645
1	101738909	6107	25758
1	101758610	6108	25811
1	101777451	6109	25440
1	101796689	6110	25758
1	101816168	6111	26341
1	101835008	6112	25175
1	101854281	6113	25811
1	101872927	6114	25334
1	101892223	6115	25652
1	101911186	6116	25546
1	101930361	6117	25599
1	101949519	6118	25864
1	101968909	6119	25917
1	101988063	6120	25493
1	102007666	6121	26235
1	102026997	6122	26129
1	102046085	6123	25546
1	102064994	6124	25334
1	102084174	6125	25970
1	102103564	6126	25864
1	102123056	6127	25970
1	102142164	6128	25917
1	102161224	6129	25599
1	102180339	6130	25546
1	102199887	6131	26182
1	102218865	6132	25493
1	102238350	6133	25864
1	102257488	6134	25864
1	102277187	6135	26394
1	102296517	6136	25970
1	102315949	6137	26129
1	102335370	6138	26023
1	102354471	6139	25864
1	102373606	6140	25493
1	102392466	6141	25281
1	102412002	6142	25970
1	102431323	6143	25970
1	102450653	6144	26023
1	102469363	6145	25175
1	102488401	6146	25705
1	102507560	6147	25599
1	102526891	6148	25917
1	102546454	6149	26129
1	102566211	6150	26553
1	102585209	6151	25705
1	102604294	6152	25440
1	102623638	6153	25864
1	102642837	6154	25652
1	102662303	6155	26235
1	102681114	6156	25652
1	102700286	6157	25281
1	102719570	6158	25970
1	102739098	6159	26076
1	102758699	6160	26394
1	102778028	6161	25970
1	102796888	6162	25387
1	102816110	6163	25811
1	102835005	6164	25069
1	102854601	6165	26341
1	102873558	6166	25387
1	102892699	6167	25705
1	102911974	6168	25705
1	102930938	6169	25599
1	102949564	6170	25122
1	102968961	6171	25811
1	102988166	6172	25705
1	103007110	6173	25440
1	103026131	6174	25493
1	103045085	6175	25334
1	103064137	6176	25705
1	103082898	6177	25016
1	103101871	6178	25546
1	103121065	6179	25864
1	103140170	6180	25440
1	103159246	6181	25864
1	103178399	6182	25917
1	103197284	6183	25122
1	103216921	6184	26288
1	103235733	6185	25387
1	103255035	6186	25546
1	103273997	6187	25440
1	103293260	6188	26182
1	103312743	6189	26076
1	103331506	6190	25281
1	103350214	6191	24963
1	103368903	6192	25175
1	103387818	6193	25334
1	103406453	6194	24963
1	103425154	6195	25069
1	103444091	6196	25228
1	103462935	6197	25281
1	103481482	6198	25175
1	103500485	6199	25440
1	103519328	6200	25069
1	103538044	6201	25122
1	103556578	6202	25228
1	103575474	6203	24804
1	103594448	6204	25599
1	103613354	6205	25228
1	103632497	6206	25917
1	103651884	6207	25970
1	103670669	6208	25016
1	103689519	6209	25546
1	103708440	6210	25334
1	103727088	6211	25016
1	103746178	6212	25652
1	103765369	6213	26076
1	103784276	6214	25228
1	103803104	6215	25122
1	103822329	6216	25599
1	103841576	6217	25758
1	103861023	6218	26235
1	103880316	6219	26023
1	103899826	6220	26235
1	103918760	6221	25122
1	103937502	6222	25228
1	103956518	6223	25493
1	103975371	6224	25281
1	103994598	6225	25758
1	104013682	6226	25811
1	104032924	6227	25493
1	104051982	6228	25705
1	104070940	6229	25493
1	104090265	6230	25864
1	104109859	6231	26288
1	104129018	6232	25705
1	104148510	6233	26129
1	104167690	6234	25758
1	104186754	6235	25652
1	104206087	6236	26129
1	104225270	6237	25493
1	104244824	6238	26076
1	104264299	6239	26394
1	104283266	6240	25016
1	104302504	6241	25970
1	104321806	6242	25811
1	104341288	6243	26182
1	104360943	6244	26553
1	104380092	6245	25811
1	104399225	6246	25546
1	104418879	6247	26500
1	104438550	6248	26235
1	104457888	6249	25864
1	104477126	6250	25970
1	104496208	6251	25864
1	104515269	6252	25387
1	104534716	6253	26023
1	104554065	6254	25758
1	104573420	6255	26341
1	104592690	6256	25864
1	104611583	6257	24910
1	104630767	6258	26182
1	104650167	6259	26076
1	104669294	6260	25440
1	104688895	6261	26235
1	104708088	6262	25864
1	104727573	6263	26129
1	104746966	6264	26182
1	104766105	6265	25493
1	104785399	6266	25811
1	104804846	6267	26288
1	104823906	6268	25440
1	104843302	6269	26182
1	104862726	6270	26023
1	104882049	6271	26076
1	104901602	6272	25917
1	104920544	6273	25758
1	104940011	6274	25811
1	104958829	6275	25387
1	104978056	6276	25864
1	104997232	6277	25652
1	105016685	6278	25970
1	105035579	6279	25175
1	105054926	6280	26288
1	105074187	6281	25864
1	105093212	6282	25334
1	105112772	6283	26076
1	105132063	6284	26076
1	105151517	6285	25970
1	105171195	6286	26659
1	105190699	6287	26288
1	105209739	6288	25228
1	105229150	6289	25970
1	105248396	6290	25864
1	105267279	6291	25122
1	105286329	6292	25864
1	105305240	6293	25016
1	105324074	6294	25387
1	105343209	6295	25864
1	105361903	6296	25228
1	105380898	6297	25387
1	105399834	6298	25069
1	105419197	6299	26023
1	105438534	6300	26235
1	105457432	6301	25228
1	105476558	6302	25758
1	105495650	6303	25387
1	105514704	6304	25705
1	105533554	6305	25175
1	105552602	6306	25440
1	105571584	6307	25970
1	105590719	6308	25599
1	105610049	6309	25758
1	105628990	6310	25493
1	105647848	6311	25387
1	105666956	6312	25387
1	105685860	6313	25175
1	105704903	6314	25811
1	105723720	6315	25387
1	105742359	6316	24804
1	105761314	6317	25440
1	105780323	6318	25546
1	105799164	6319	25175
1	105818547	6320	25758
1	105837545	6321	25705
1	105856479	6322	25440
1	105875586	6323	25493
1	105894790	6324	25652
1	105914092	6325	25970
1	105933124	6326	25440
1	105952043	6327	25652
1	105971039	6328	25387
1	105989803	6329	25387
1	106008532	6330	25069
1	106027496	6331	25440
1	106046695	6332	25599
1	106065561	6333	25387
1	106084559	6334	25387
1	106103407	6335	25016
1	106122343	6336	25334
1	106141704	6337	26182
1	106160956	6338	25811
1	106180451	6339	26341
1	106199847	6340	25917
1	106219002	6341	25599
1	106237705	6342	25122
1	106256634	6343	25546
1	106275787	6344	25705
1	106295216	6345	26023
1	106314664	6346	26076
1	106333932	6347	25705
1	106352851	6348	25387
1	106371666	6349	25069
1	106390999	6350	25917
1	106410029	6351	25811
1	106429295	6352	25652
1	106448594	6353	25758
1	106467194	6354	25175
1	106486184	6355	25493
1	106504993	6356	25175
1	106524253	6357	26076
1	106542876	6358	24910
1	106561851	6359	25122
1	106580713	6360	25546
1	106599843	6361	25705
1	106618849	6362	25387
1	106637961	6363	25440
1	106657450	6364	26182
1	106676105	6365	25175
1	106695299	6366	25917
1	106714617	6367	25705
1	106733697	6368	25652
1	106752500	6369	25281
1	106771461	6370	25493
1	106790322	6371	25122
1	106809486	6372	25917
1	106828237	6373	24751
1	106846898	6374	25652
1	106866081	6375	25387
1	106885246	6376	25546
1	106904033	6377	25334
1	106922887	6378	25281
1	106942189	6379	25652
1	106961313	6380	25705
1	106980051	6381	25228
1	106999037	6382	25599
1	107017983	6383	25493
1	107037035	6384	25493
1	107056007	6385	25387
1	107075338	6386	25758
1	107094183	6387	25599
1	107112992	6388	25175
1	107131836	6389	25016
1	107150685	6390	25546
1	107169761	6391	25546
1	107188515	6392	25175
1	107207539	6393	25334
1	107226474	6394	25440
1	107245350	6395	25387
1	107264473	6396	25599
1	107283726	6397	25970
1	107302532	6398	25016
1	107321127	6399	25069
1	107340114	6400	25652
1	107358880	6401	24910
1	107377881	6402	25440
1	107396594	6403	25069
1	107415544	6404	25440
1	107434437	6405	25281
1	107453202	6406	25228
1	107472347	6407	25705
1	107491329	6408	25440
1	107510410	6409	25599
1	107529726	6410	26235
1	107549097	6411	25758
1	107567998	6412	25281
1	107586904	6413	25493
1	107605848	6414	25334
1	107624981	6415	25864
1	107644036	6416	25334
1	107663023	6417	25440
1	107682263	6418	25917
1	107701363	6419	25599
1	107720985	6420	26076
1	107740421	6421	26023
1	107759660	6422	26182
1	107779300	6423	26394
1	107798644	6424	25599
1	107817959	6425	26023
1	107836853	6426	25334
1	107855818	6427	25387
1	107875121	6428	25917
1	107894310	6429	25970
1	107913645	6430	25917
1	107933250	6431	26447
1	107952661	6432	26235
1	107971687	6433	25122
1	107990911	6434	26076
1	108010189	6435	25705
1	108029393	6436	25811
1	108048737	6437	26182
1	108068271	6438	26023
1	108087166	6439	25016
1	108106073	6440	25652
1	108125772	6441	26023
1	108144843	6442	25652
1	108164117	6443	25811
1	108183439	6444	26235
1	108202670	6445	25758
1	108221584	6446	25387
1	108241142	6447	26023
1	108260584	6448	26076
1	108279948	6449	26235
1	108299466	6450	26129
1	108318409	6451	25599
1	108337962	6452	25917
1	108357310	6453	26235
1	108376836	6454	25864
1	108396392	6455	26447
1	108415494	6456	25811
1	108434505	6457	25281
1	108454282	6458	26500
1	108473644	6459	26129
1	108493309	6460	26341
1	108512460	6461	25493
1	108532297	6462	26659
1	108551666	6463	25917
1	108571430	6464	26765
1	108590787	6465	25758
1	108610412	6466	26606
1	108629760	6467	26076
1	108649078	6468	25705
1	108668491	6469	25970
1	108688333	6470	26924
1	108707480	6471	25758
1	108726896	6472	25758
1	108746605	6473	26553
1	108766491	6474	26765
1	108786356	6475	26500
1	108806012	6476	26447
1	108825677	6477	26288
1	108845466	6478	26606
1	108864642	6479	25758
1	108884094	6480	25705
1	108903049	6481	25440
1	108921399	6482	24804
1	108939995	6483	24751
1	108958209	6484	24751
1	108976724	6485	24698
1	108995337	6486	25122
1	109013582	6487	24592
1	109032046	6488	24274
1	109050657	6489	24910
1	109068630	6490	24115
1	109087316	6491	25440
1	109105737	6492	24433
1	109124085	6493	24804
1	109142609	6494	24698
1	109160757	6495	24486
1	109179305	6496	24645
1	109197591	6497	24433
1	109215808	6498	24592
1	109233884	6499	24009
1	109251811	6500	24380
1	109270442	6501	24963
1	109288729	6502	24327
1	109307083	6503	24486
1	109325352	6504	24645
1	109343814	6505	24910
1	109362285	6506	24751
1	109380914	6507	24751
1	109399334	6508	24857
1	109417579	6509	24592
1	109435855	6510	24539
1	109454254	6511	24592
1	109472605	6512	24539
1	109490799	6513	24380
1	109509374	6514	25016
1	109527638	6515	24645
1	109546092	6516	24486
1	109564675	6517	24963
1	109583183	6518	24963
1	109601652	6519	24645
1	109620309	6520	24857
1	109638970	6521	25334
1	109657552	6522	24857
1	109676179	6523	24645
1	109695046	6524	25546
1	109713831	6525	25228
1	109732527	6526	24751
1	109751430	6527	25652
1	109770007	6528	25069
1	109788669	6529	24804
1	109806899	6530	24539
1	109825400	6531	24804
1	109843712	6532	24751
1	109862293	6533	24592
1	109881005	6534	25334
1	109899700	6535	24857
1	109918408	6536	25175
1	109937284	6537	25440
1	109956223	6538	25387
1	109975068	6539	25016
1	109993954	6540	25652
1	110012619	6541	24963
1	110031219	6542	25122
1	110050204	6543	25122
1	110068997	6544	25228
1	110087713	6545	25334
1	110106866	6546	25493
1	110125482	6547	24857
1	110143833	6548	24857
1	110162786	6549	25228
1	110181351	6550	24963
1	110200251	6551	25493
1	110218919	6552	24804
1	110237548	6553	25016
1	110255704	6554	24645
1	110274813	6555	25652
1	110293296	6556	24910
1	110311726	6557	24539
1	110330415	6558	24963
1	110349262	6559	25228
1	110368140	6560	25652
1	110387017	6561	25122
1	110405897	6562	25334
1	110424254	6563	24804
1	110442936	6564	24804
1	110461852	6565	25705
1	110480717	6566	25069
1	110499668	6567	25440
1	110518519	6568	25281
1	110537210	6569	24751
1	110555538	6570	24857
1	110574097	6571	24910
1	110593048	6572	25281
1	110611657	6573	24857
1	110630445	6574	25334
1	110649481	6575	25652
1	110668409	6576	25334
1	110686889	6577	24857
1	110705835	6578	25175
1	110724968	6579	25758
1	110743785	6580	25440
1	110762949	6581	25440
1	110782127	6582	25917
1	110801464	6583	25811
1	110820182	6584	25493
1	110839468	6585	25493
1	110858603	6586	25811
1	110877519	6587	25493
1	110896580	6588	25652
1	110915892	6589	25440
1	110935127	6590	26341
1	110954347	6591	25440
1	110973139	6592	25334
1	110991664	6593	24804
1	111010438	6594	25122
1	111029800	6595	26235
1	111048722	6596	25228
1	111067570	6597	25387
1	111086833	6598	25917
1	111105942	6599	25546
1	111124517	6600	24857
1	111143571	6601	25652
1	111162660	6602	25228
1	111181835	6603	26076
1	111200642	6604	25175
1	111219919	6605	25811
1	111239111	6606	25811
1	111258225	6607	25758
1	111277465	6608	25599
1	111296804	6609	26182
1	111316254	6610	25917
1	111335002	6611	25228
1	111354133	6612	25387
1	111373526	6613	26553
1	111392284	6614	24963
1	111411614	6615	25970
1	111431336	6616	26394
1	111450701	6617	25970
1	111470225	6618	26341
1	111489368	6619	25387
1	111507998	6620	25387
1	111527699	6621	26182
1	111546968	6622	25758
1	111565732	6623	25228
1	111585240	6624	26235
1	111604011	6625	25016
1	111623145	6626	25493
1	111642101	6627	25546
1	111661179	6628	25864
1	111680281	6629	25387
1	111699119	6630	25387
1	111718145	6631	25493
1	111737240	6632	25599
1	111756454	6633	25811
1	111775612	6634	25811
1	111794575	6635	25334
1	111813932	6636	25864
1	111833048	6637	25705
1	111852283	6638	25970
1	111871565	6639	25599
1	111890715	6640	25970
1	111909919	6641	25599
1	111929129	6642	25970
1	111948081	6643	24963
1	111967072	6644	25970
1	111986688	6645	26394
1	112005864	6646	25599
1	112025152	6647	25758
1	112044083	6648	25599
1	112063706	6649	26182
1	112082898	6650	25652
1	112101983	6651	25705
1	112121127	6652	25758
1	112140332	6653	25864
1	112159656	6654	25758
1	112178890	6655	25811
1	112197523	6656	24963
1	112216752	6657	25917
1	112235585	6658	25122
1	112254968	6659	25970
1	112273585	6660	24963
1	112292909	6661	26235
1	112311947	6662	25387
1	112330986	6663	25228
1	112350345	6664	26341
1	112369409	6665	25758
1	112388772	6666	25705
1	112407804	6667	25864
1	112427267	6668	25652
1	112446228	6669	25599
1	112465486	6670	25705
1	112484738	6671	26076
1	112503931	6672	25811
1	112523297	6673	25970
1	112542130	6674	24857
1	112561109	6675	25440
1	112580079	6676	25917
1	112599099	6677	25069
1	112618441	6678	26023
1	112637586	6679	25652
1	112656686	6680	25811
1	112676336	6681	26659
1	112695617	6682	25864
1	112714802	6683	25440
1	112733972	6684	25917
1	112752714	6685	25069
1	112771787	6686	25387
1	112791176	6687	26341
1	112810519	6688	25652
1	112829389	6689	25493
1	112848075	6690	25175
1	112867578	6691	25811
1	112886639	6692	25811
1	112905933	6693	25864
1	112924809	6694	25175
1	112944084	6695	26023
1	112963054	6696	25493
1	112982273	6697	25599
1	113001901	6698	26500
1	113021147	6699	25864
1	113040193	6700	25334
1	113059191	6701	25705
1	113078233	6702	25440
1	113097205	6703	25334
1	113116265	6704	25917
1	113135124	6705	25175
1	113154489	6706	25970
1	113173961	6707	26235
1	113193439	6708	26023
1	113212567	6709	25493
1	113231922	6710	25970
1	113251365	6711	26235
1	113270587	6712	26076
1	113289502	6713	25016
1	113309071	6714	26288
1	113328482	6715	25864
1	113347578	6716	25917
1	113366747	6717	25705
1	113385844	6718	25334
1	113405168	6719	26076
1	113424248	6720	25705
1	113443132	6721	25387
1	113461962	6722	24963
1	113481356	6723	26023
1	113500570	6724	25758
1	113519500	6725	25546
1	113538878	6726	25970
1	113558102	6727	25705
1	113577186	6728	25811
1	113595952	6729	24857
1	113614799	6730	25599
1	113633948	6731	25387
1	113652935	6732	25599
1	113671755	6733	25546
1	113691024	6734	25652
1	113710183	6735	25652
1	113729144	6736	25228
1	113747985	6737	25334
1	113767098	6738	25864
1	113786269	6739	25758
1	113805386	6740	25334
1	113824618	6741	25970
1	113843674	6742	25652
1	113862932	6743	25599
1	113881752	6744	25599
1	113900602	6745	25069
1	113919542	6746	25334
1	113938585	6747	25652
1	113957591	6748	25387
1	113976719	6749	25705
1	113995334	6750	24910
1	114014175	6751	25440
1	114033592	6752	25970
1	114053032	6753	26288
1	114072536	6754	26076
1	114091762	6755	25599
1	114110633	6756	25546
1	114130388	6757	26341
1	114149594	6758	25758
1	114168827	6759	25758
1	114188052	6760	25917
1	114207121	6761	25493
1	114226396	6762	25917
1	114245725	6763	26023
1	114264756	6764	25228
1	114283858	6765	25334
1	114302894	6766	25970
1	114322154	6767	25811
1	114340915	6768	25175
1	114359886	6769	25546
1	114378873	6770	25387
1	114397871	6771	25228
1	114416885	6772	25864
1	114435764	6773	25387
1	114454600	6774	24804
1	114473490	6775	25546
1	114492640	6776	25758
1	114511233	6777	24963
1	114530526	6778	25864
1	114549540	6779	25705
1	114568755	6780	25705
1	114587839	6781	25440
1	114606643	6782	25334
1	114625476	6783	25016
1	114644189	6784	25546
1	114663397	6785	25175
1	114682198	6786	25864
1	114701047	6787	25122
1	114720112	6788	25387
1	114739170	6789	25493
1	114758389	6790	25917
1	114777960	6791	26023
1	114797045	6792	25705
1	114816481	6793	26288
1	114835509	6794	25440
1	114854964	6795	25970
1	114873828	6796	25228
1	114892981	6797	25917
1	114911901	6798	25334
1	114930729	6799	25175
1	114950114	6800	26288
1	114968945	6801	24963
1	114988146	6802	25811
1	115006958	6803	25281
1	115025488	6804	25016
1	115044448	6805	25546
1	115063447	6806	25599
1	115082533	6807	25334
1	115101290	6808	25281
1	115120349	6809	25334
1	115139611	6810	25705
1	115158568	6811	25493
1	115177645	6812	25811
1	115196859	6813	25599
1	115216290	6814	25811
1	115235207	6815	25387
1	115254567	6816	26235
1	115273441	6817	25334
1	115292277	6818	25334
1	115311707	6819	26023
1	115330942	6820	25758
1	115350713	6821	26500
1	115369565	6822	25334
1	115388366	6823	25493
1	115407248	6824	25122
1	115426551	6825	25970
1	115445342	6826	25069
1	115464273	6827	25387
1	115483260	6828	25811
1	115502278	6829	25175
1	115521608	6830	25917
1	115540336	6831	25175
1	115559337	6832	25493
1	115578646	6833	26129
1	115598160	6834	25864
1	115617407	6835	25917
1	115636389	6836	25069
1	115655634	6837	26076
1	115674543	6838	25599
1	115693945	6839	25811
1	115712963	6840	25652
1	115731785	6841	25122
1	115750845	6842	25440
1	115769441	6843	25016
1	115788376	6844	25493
1	115807651	6845	25652
1	115826886	6846	25970
1	115845355	6847	24910
1	115864613	6848	25758
1	115883751	6849	25864
1	115902966	6850	25546
1	115922198	6851	25493
1	115941177	6852	25705
1	115960382	6853	25864
1	115979451	6854	25546
1	115998414	6855	25493
1	116017718	6856	25970
1	116036646	6857	25387
1	116056163	6858	25917
1	116075315	6859	26023
1	116094493	6860	25546
1	116113535	6861	25652
1	116132808	6862	25917
1	116151973	6863	25599
1	116170807	6864	25440
1	116190039	6865	25811
1	116209353	6866	25493
1	116228584	6867	25758
1	116247813	6868	26023
1	116267229	6869	25758
1	116286612	6870	26076
1	116305911	6871	26341
1	116324695	6872	25016
1	116343989	6873	25917
1	116363320	6874	25705
1	116382674	6875	26341
1	116401893	6876	25493
1	116421204	6877	25864
1	116440431	6878	25970
1	116459730	6879	25758
1	116478825	6880	25546
1	116498375	6881	26394
1	116517705	6882	25864
1	116536913	6883	25970
1	116555978	6884	25387
1	116575106	6885	25705
1	116594570	6886	25917
1	116613798	6887	26023
1	116633128	6888	25970
1	116652161	6889	25546
1	116671719	6890	26076
1	116690748	6891	25546
1	116710334	6892	26341
1	116729434	6893	25440
1	116748642	6894	25811
1	116767571	6895	25281
1	116787116	6896	26500
1	116806401	6897	25970
1	116825529	6898	25334
1	116844878	6899	25864
1	116864350	6900	26235
1	116883486	6901	25758
1	116903123	6902	26288
1	116922292	6903	25758
1	116941417	6904	25546
1	116960345	6905	25493
1	116979452	6906	25705
1	116998600	6907	25652
1	117018008	6908	26288
1	117037876	6909	26182
1	117057182	6910	26288
1	117076596	6911	25970
1	117095755	6912	25811
1	117115157	6913	25811
1	117134686	6914	25970
1	117153913	6915	25970
1	117173208	6916	25970
1	117192627	6917	26182
1	117211900	6918	25758
1	117231181	6919	25652
1	117250565	6920	26023
1	117270366	6921	26500
1	117289426	6922	25705
1	117308939	6923	25970
1	117328174	6924	25970
1	117347562	6925	25864
1	117366566	6926	25864
1	117386372	6927	26553
1	117406093	6928	26182
1	117425335	6929	25917
1	117444822	6930	26129
1	117464100	6931	25970
1	117483375	6932	25864
1	117503024	6933	26235
1	117522478	6934	26023
1	117541979	6935	26129
1	117561623	6936	26500
1	117581122	6937	26023
1	117600588	6938	26235
1	117620370	6939	26288
1	117639703	6940	26341
1	117659106	6941	25599
1	117678523	6942	26235
1	117697809	6943	25864
1	117717560	6944	26553
1	117737351	6945	26765
1	117757328	6946	26606
1	117776565	6947	25864
1	117796338	6948	26447
1	117815606	6949	25864
1	117835234	6950	26288
1	117854689	6951	25758
1	117873849	6952	25970
1	117892949	6953	25652
1	117911974	6954	25705
1	117931658	6955	26341
1	117950889	6956	25705
1	117970164	6957	25917
1	117989817	6958	26235
1	118009022	6959	25864
1	118028110	6960	25387
1	118047212	6961	25599
1	118065730	6962	25175
1	118085257	6963	26023
1	118104388	6964	25811
1	118123579	6965	25970
1	118142843	6966	25652
1	118162186	6967	25917
1	118181238	6968	25440
1	118200802	6969	26341
1	118219890	6970	25652
1	118239306	6971	26076
1	118258791	6972	26182
1	118277962	6973	25440
1	118297081	6974	25917
1	118315926	6975	25122
1	118335341	6976	25811
1	118354337	6977	26129
1	118373698	6978	25493
1	118393436	6979	26447
1	118412530	6980	25758
1	118432004	6981	26023
1	118450960	6982	25811
1	118470048	6983	25652
1	118489453	6984	25599
1	118508685	6985	26235
1	118527891	6986	25546
1	118546958	6987	25440
1	118566585	6988	26394
1	118586301	6989	26394
1	118605388	6990	25758
1	118624990	6991	25970
1	118644591	6992	26447
1	118664033	6993	26341
1	118683301	6994	25387
1	118702607	6995	26023
1	118721734	6996	25917
1	118741075	6997	25970
1	118760544	6998	26023
1	118780086	6999	26023
1	118799559	7000	26606
1	118818773	7001	25493
1	118838339	7002	26606
1	118857713	7003	25705
1	118877343	7004	26553
1	118896825	7005	25705
1	118916002	7006	25811
1	118935091	7007	25652
1	118954229	7008	25970
1	118973393	7009	25546
1	118992699	7010	25705
1	119011947	7011	25705
1	119031366	7012	26288
1	119050458	7013	25705
1	119069764	7014	25811
1	119089124	7015	25864
1	119108308	7016	25599
1	119127642	7017	26076
1	119147103	7018	25970
1	119165847	7019	25281
1	119184682	7020	25228
1	119204094	7021	26076
1	119223081	7022	25705
1	119241930	7023	25334
1	119261119	7024	25811
1	119280388	7025	25758
1	119299308	7026	25069
1	119318561	7027	25758
1	119337369	7028	25652
1	119356400	7029	25493
1	119375789	7030	25811
1	119394951	7031	25705
1	119414410	7032	26182
1	119433832	7033	26129
1	119453111	7034	25546
1	119472238	7035	25811
1	119491704	7036	25970
1	119510907	7037	26076
1	119530290	7038	25970
1	119549515	7039	25758
1	119568842	7040	25864
1	119588439	7041	26447
1	119608239	7042	26500
1	119627633	7043	26076
1	119647122	7044	26182
1	119666516	7045	25917
1	119685817	7046	25652
1	119705124	7047	25917
1	119724508	7048	26129
1	119743676	7049	25758
1	119762811	7050	25758
1	119781684	7051	25334
1	119801424	7052	26606
1	119821038	7053	25970
1	119840123	7054	25705
1	119859705	7055	26341
1	119878796	7056	25758
1	119898110	7057	25387
1	119916961	7058	25546
1	119935951	7059	25281
1	119954906	7060	25811
1	119973878	7061	25016
1	119992743	7062	25440
1	120012149	7063	25864
1	120031149	7064	25864
1	120050184	7065	25493
1	120069103	7066	25334
1	120088245	7067	25705
1	120107476	7068	25652
1	120126518	7069	25811
1	120145402	7070	25281
1	120164347	7071	25175
1	120183519	7072	25705
1	120202163	7073	24963
1	120221051	7074	25440
1	120240318	7075	25917
1	120259062	7076	25228
1	120278332	7077	25864
1	120297322	7078	25387
1	120316539	7079	25705
1	120335406	7080	25281
1	120354789	7081	25970
1	120373391	7082	24857
1	120392485	7083	25546
1	120411383	7084	25440
1	120430111	7085	25122
1	120448960	7086	25440
1	120468006	7087	25758
1	120486895	7088	25122
1	120505639	7089	24963
1	120524395	7090	25175
1	120543266	7091	25493
1	120562640	7092	25811
1	120581808	7093	25758
1	120601225	7094	26076
1	120620268	7095	25493
1	120639399	7096	25811
1	120658647	7097	25652
1	120677685	7098	25864
1	120696612	7099	25016
1	120716203	7100	26394
1	120735100	7101	25493
1	120754077	7102	25228
1	120773357	7103	25864
1	120792574	7104	25546
1	120811725	7105	26182
1	120830896	7106	25440
1	120849870	7107	25758
1	120868856	7108	25387
1	120888312	7109	26235
1	120907610	7110	25758
1	120927083	7111	26023
1	120946305	7112	25387
1	120965587	7113	26129
1	120985343	7114	26924
1	121004475	7115	25652
1	121023973	7116	26023
1	121043593	7117	26394
1	121063292	7118	26235
1	121082557	7119	25917
1	121101599	7120	25864
1	121120697	7121	25175
1	121140174	7122	26394
1	121159110	7123	25493
1	121178609	7124	25705
1	121198102	7125	26182
1	121217191	7126	25599
1	121236860	7127	26659
1	121256039	7128	25864
1	121274962	7129	25122
1	121294084	7130	25546
1	121313281	7131	25811
1	121332305	7132	25493
1	121351125	7133	25334
1	121370056	7134	25440
1	121389385	7135	25917
1	121408622	7136	26023
1	121427834	7137	25652
1	121447207	7138	26023
1	121466758	7139	25970
1	121486256	7140	26129
1	121505267	7141	25705
1	121524517	7142	25811
1	121544061	7143	26023
1	121563828	7144	26394
1	121583067	7145	26182