version 2
run AimdCC-1-20100909-02:11:46-5960
attr configname AimdCC
attr datetime 20100909-02:11:46
attr experiment AimdCC
attr inifile D:/Developement/Oversim2/multic/simulations/omnetpp.ini
attr iterationvars $nhops=3
attr iterationvars2 "$nhops=3, $repetition=0"
attr measurement $nhops=3
attr network oversim.underlay.simpleunderlay.SimpleUnderlayNetwork
attr nhops 3
attr processid 5960
attr repetition 0
attr replication #0
attr resultdir results
attr runnumber 1
attr seedset 1

vector 1  SimpleUnderlayNetwork.globalObserver.globalStatistics  incoming_bytes  ETV
vector 2  SimpleUnderlayNetwork.globalObserver.globalStatistics  drops  ETV
vector 3  SimpleUnderlayNetwork.globalObserver.globalStatistics  delayed_acks  ETV
vector 4  SimpleUnderlayNetwork.globalObserver.globalStatistics  timetotimeouts  ETV
vector 5  SimpleUnderlayNetwork.globalObserver.globalStatistics  9rateOf1To0  ETV
vector 6  SimpleUnderlayNetwork.globalObserver.globalStatistics  max9RateOf1To0  ETV
vector 7  SimpleUnderlayNetwork.globalObserver.globalStatistics  9rateOf1To1  ETV
vector 8  SimpleUnderlayNetwork.globalObserver.globalStatistics  max9RateOf1To1  ETV
vector 9  SimpleUnderlayNetwork.globalObserver.globalStatistics  9rateOf1To2  ETV
vector 10  SimpleUnderlayNetwork.globalObserver.globalStatistics  max9RateOf1To2  ETV
vector 11  SimpleUnderlayNetwork.globalObserver.globalStatistics  9rateOf1To3  ETV
vector 12  SimpleUnderlayNetwork.globalObserver.globalStatistics  max9RateOf1To3  ETV
vector 13  SimpleUnderlayNetwork.globalObserver.globalStatistics  9rateOf1To4  ETV
vector 14  SimpleUnderlayNetwork.globalObserver.globalStatistics  max9RateOf1To4  ETV
vector 15  SimpleUnderlayNetwork.globalObserver.globalStatistics  9rateOf1To5  ETV
vector 16  SimpleUnderlayNetwork.globalObserver.globalStatistics  max9RateOf1To5  ETV
vector 17  SimpleUnderlayNetwork.globalObserver.globalStatistics  9rateOf1To6  ETV
vector 18  SimpleUnderlayNetwork.globalObserver.globalStatistics  max9RateOf1To6  ETV
vector 19  SimpleUnderlayNetwork.globalObserver.globalStatistics  9rateOf1To7  ETV
vector 20  SimpleUnderlayNetwork.globalObserver.globalStatistics  max9RateOf1To7  ETV
vector 21  SimpleUnderlayNetwork.globalObserver.globalStatistics  9rateOf1To8  ETV
vector 22  SimpleUnderlayNetwork.globalObserver.globalStatistics  max9RateOf1To8  ETV
vector 23  SimpleUnderlayNetwork.globalObserver.globalStatistics  9rateOf1To9  ETV
vector 24  SimpleUnderlayNetwork.globalObserver.globalStatistics  max9RateOf1To9  ETV
vector 25  SimpleUnderlayNetwork.globalObserver.globalStatistics  1rate  ETV
vector 26  SimpleUnderlayNetwork.globalObserver.globalStatistics  max2Rate  ETV
vector 27  SimpleUnderlayNetwork.globalObserver.globalStatistics  "GlobalNodeList: Number of nodes"  ETV
vector 28  SimpleUnderlayNetwork.globalObserver.globalStatistics  "GlobalNodeList: Number of bootstrapped malicious nodes"  ETV
1	130216381	6017	47700
1	130241099	6018	48389
1	130265496	6019	46958
1	130290144	6020	48230
1	130315100	6021	48548
1	130339974	6022	47382
1	130364554	6023	48336
1	130389556	6024	48071
1	130414295	6025	48389
1	130438989	6026	47382
1	130463733	6027	48071
1	130488658	6028	48548
1	130513458	6029	48230
1	130537978	6030	47117
1	130562853	6031	48124
1	130587661	6032	48283
1	130612028	6033	47117
1	130636981	6034	48230
1	130662011	6035	48389
1	130686876	6036	48654
1	130711648	6037	47647
1	130736623	6038	48813
1	130761708	6039	48813
1	130786504	6040	47329
1	130810890	6041	46905
1	130835395	6042	47965
1	130859632	6043	47011
1	130883696	6044	46799
1	130907919	6045	46481
1	130931896	6046	47117
1	130955876	6047	45686
1	130979971	6048	46481
1	131004489	6049	48124
1	131028527	6050	46057
1	131052850	6051	47117
1	131076856	6052	46905
1	131101156	6053	46746
1	131125570	6054	46852
1	131149828	6055	47965
1	131174101	6056	46693
1	131198255	6057	47064
1	131222596	6058	46216
1	131247001	6059	47700
1	131271227	6060	47223
1	131295749	6061	47594
1	131320204	6062	47170
1	131344752	6063	48124
1	131369257	6064	46905
1	131393448	6065	46375
1	131417811	6066	47276
1	131442180	6067	48230
1	131466559	6068	46958
1	131490687	6069	46269
1	131515472	6070	48548
1	131539804	6071	46958
1	131563838	6072	46057
1	131588522	6073	48071
1	131612941	6074	47753
1	131637032	6075	46322
1	131661486	6076	47011
1	131685487	6077	46693
1	131710060	6078	47912
1	131734530	6079	46746
1	131758661	6080	47488
1	131783238	6081	47647
1	131807601	6082	47011
1	131831617	6083	46640
1	131855213	6084	46534
1	131878981	6085	45368
1	131902456	6086	45156
1	131926246	6087	46534
1	131949856	6088	45845
1	131973599	6089	45686
1	131997007	6090	45209
1	132020789	6091	46269
1	132044516	6092	46057
1	132068142	6093	45368
1	132091713	6094	45686
1	132115322	6095	46110
1	132138905	6096	45103
1	132162397	6097	45368
1	132186079	6098	45951
1	132210519	6099	48283
1	132234147	6100	45421
1	132258121	6101	46375
1	132281630	6102	45315
1	132305481	6103	46905
1	132329339	6104	45951
1	132353290	6105	46057
1	132377150	6106	46269
1	132401146	6107	46799
1	132424890	6108	45739
1	132448695	6109	46163
1	132472401	6110	46057
1	132496271	6111	46057
1	132520053	6112	45633
1	132544060	6113	46905
1	132567654	6114	46004
1	132591426	6115	45792
1	132615039	6116	45739
1	132638904	6117	46110
1	132662975	6118	46375
1	132687270	6119	47276
1	132711161	6120	46481
1	132734693	6121	46057
1	132758788	6122	46428
1	132782598	6123	45739
1	132806536	6124	46799
1	132830388	6125	46057
1	132854572	6126	46852
1	132878593	6127	46110
1	132902633	6128	47064
1	132926830	6129	46269
1	132950989	6130	47488
1	132975012	6131	45474
1	132999132	6132	47064
1	133023303	6133	47329
1	133047289	6134	46428
1	133071452	6135	46746
1	133095208	6136	46163
1	133119174	6137	46057
1	133142853	6138	45474
1	133167230	6139	47753
1	133191047	6140	46057
1	133215260	6141	46799
1	133239214	6142	46216
1	133263042	6143	46852
1	133286814	6144	45951
1	133310796	6145	46375
1	133334952	6146	46905
1	133358320	6147	45368
1	133382610	6148	47117
1	133406547	6149	45898
1	133430428	6150	46004
1	133454281	6151	46746
1	133478108	6152	45739
1	133501957	6153	46269
1	133525632	6154	46110
1	133549706	6155	46534
1	133573702	6156	46375
1	133597648	6157	46110
1	133621553	6158	46905
1	133645380	6159	45315
1	133669428	6160	47011
1	133693012	6161	45898
1	133717111	6162	46640
1	133741044	6163	46375
1	133764459	6164	44944
1	133788283	6165	46640
1	133811750	6166	44838
1	133835696	6167	46958
1	133859250	6168	45527
1	133882661	6169	45792
1	133906494	6170	45739
1	133930217	6171	45951
1	133953532	6172	44520
1	133977044	6173	45898
1	134000582	6174	45527
1	134024334	6175	46693
1	134048302	6176	45845
1	134072151	6177	46958
1	134096127	6178	45633
1	134119656	6179	46481
1	134143550	6180	45686
1	134167444	6181	46322
1	134191362	6182	46322
1	134215354	6183	46640
1	134239243	6184	46852
1	134262899	6185	45580
1	134286590	6186	45580
1	134310061	6187	44785
1	134333822	6188	46428
1	134357863	6189	46905
1	134381956	6190	46799
1	134405869	6191	46004
1	134430010	6192	47064
1	134453629	6193	46057
1	134477620	6194	46110
1	134501910	6195	47170
1	134525795	6196	46110
1	134549552	6197	46110
1	134573460	6198	46428
1	134597520	6199	46481
1	134621415	6200	46481
1	134645422	6201	46640
1	134669564	6202	46640
1	134693476	6203	46057
1	134717538	6204	47329
1	134741568	6205	45368
1	134765610	6206	47117
1	134789447	6207	45633
1	134813447	6208	47223
1	134837687	6209	46110
1	134861693	6210	47011
1	134885815	6211	46852
1	134909792	6212	46640
1	134933435	6213	45898
1	134957340	6214	46269
1	134981636	6215	46799
1	135006066	6216	47011
1	135030077	6217	46587
1	135054238	6218	47382
1	135078530	6219	47064
1	135102648	6220	47117
1	135126636	6221	45898
1	135150697	6222	46905
1	135174733	6223	45898
1	135198997	6224	47700
1	135223282	6225	46428
1	135247566	6226	47329
1	135271692	6227	47011
1	135295926	6228	46216
1	135319914	6229	47541
1	135344427	6230	46322
1	135368868	6231	48071
1	135393344	6232	47329
1	135417401	6233	46004
1	135441277	6234	46693
1	135465315	6235	46958
1	135489205	6236	46163
1	135513387	6237	46852
1	135537027	6238	45421
1	135561087	6239	47170
1	135585200	6240	46428
1	135609440	6241	47170
1	135633559	6242	46587
1	135657592	6243	46746
1	135681558	6244	45845
1	135705876	6245	47329
1	135729589	6246	45527
1	135753908	6247	47912
1	135778039	6248	46640
1	135802148	6249	46322
1	135826081	6250	46746
1	135850358	6251	46799
1	135874525	6252	46693
1	135898609	6253	46534
1	135922671	6254	47011
1	135946874	6255	46587
1	135971541	6256	48177
1	135995746	6257	46269
1	136020040	6258	47117
1	136044688	6259	47594
1	136069281	6260	48654
1	136093641	6261	46481
1	136118038	6262	47488
1	136142294	6263	46799
1	136166542	6264	47170
1	136191033	6265	47965
1	136215805	6266	47594
1	136240204	6267	47117
1	136264449	6268	47276
1	136288409	6269	46269
1	136312654	6270	46640
1	136336782	6271	47170
1	136361143	6272	47117
1	136385388	6273	46587
1	136409359	6274	46799
1	136433583	6275	47170
1	136457823	6276	46799
1	136482018	6277	46799
1	136506353	6278	47594
1	136531010	6279	47170
1	136555141	6280	46216
1	136579554	6281	48018
1	136603954	6282	47117
1	136628381	6283	47700
1	136652734	6284	47382
1	136676837	6285	46004
1	136701208	6286	47700
1	136725742	6287	47011
1	136750004	6288	47435
1	136774174	6289	46269
1	136798378	6290	46693
1	136822929	6291	48177
1	136847059	6292	47382
1	136871668	6293	46481
1	136895899	6294	47594
1	136920054	6295	46958
1	136944526	6296	47011
1	136968713	6297	46693
1	136993103	6298	47859
1	137017532	6299	47011
1	137041452	6300	46163
1	137065745	6301	46746
1	137090241	6302	48495
1	137114023	6303	44732
1	137138201	6304	47965
1	137162517	6305	46852
1	137186989	6306	47223
1	137211288	6307	47912
1	137235804	6308	47170
1	137260135	6309	46958
1	137284297	6310	46852
1	137308702	6311	46799
1	137332903	6312	47170
1	137357137	6313	46852
1	137381162	6314	46587
1	137405634	6315	47806
1	137430115	6316	47011
1	137454288	6317	47329
1	137478207	6318	45580
1	137502691	6319	47647
1	137526909	6320	47170
1	137551373	6321	47435
1	137576064	6322	47859
1	137600476	6323	47700
1	137625166	6324	47647
1	137649651	6325	47435
1	137673487	6326	45951
1	137698178	6327	48177
1	137722908	6328	47965
1	137747336	6329	46799
1	137771864	6330	47647
1	137796167	6331	47064
1	137820085	6332	46587
1	137844383	6333	46587
1	137868765	6334	47753
1	137893052	6335	46216
1	137917593	6336	47912
1	137942000	6337	47541
1	137965939	6338	45686
1	137990216	6339	47223
1	138014484	6340	47700
1	138038724	6341	47117
1	138062971	6342	46640
1	138087486	6343	47223
1	138111061	6344	46004
1	138134258	6345	44679
1	138157616	6346	45580
1	138180696	6347	44997
1	138204117	6348	44997
1	138227718	6349	45315
1	138250932	6350	45315
1	138274540	6351	45739
1	138297968	6352	45580
1	138321261	6353	45209
1	138344601	6354	44891
1	138368213	6355	45792
1	138391773	6356	45421
1	138415200	6357	45951
1	138438862	6358	45633
1	138462021	6359	44149
1	138485524	6360	45845
1	138509253	6361	46216
1	138532957	6362	45580
1	138556212	6363	45845
1	138579752	6364	44626
1	138603438	6365	46057
1	138626508	6366	44785
1	138650114	6367	45845
1	138673786	6368	45580
1	138697343	6369	45792
1	138720617	6370	45474
1	138743994	6371	45050
1	138767408	6372	45368
1	138790918	6373	45898
1	138814427	6374	44732
1	138837853	6375	46216
1	138861255	6376	45527
1	138884763	6377	44520
1	138908374	6378	46322
1	138931742	6379	44891
1	138955470	6380	45739
1	138979141	6381	46269
1	139002810	6382	45792
1	139026513	6383	45951
1	139050241	6384	45951
1	139073843	6385	45898
1	139097487	6386	45686
1	139120861	6387	45156
1	139144247	6388	45739
1	139167633	6389	44891
1	139191013	6390	45262
1	139214838	6391	46269
1	139238481	6392	45686
1	139262025	6393	45686
1	139285604	6394	45686
1	139309547	6395	46375
1	139333352	6396	46110
1	139357135	6397	46004
1	139381035	6398	46057
1	139404716	6399	46110
1	139428222	6400	45262
1	139452000	6401	46587
1	139475431	6402	45156
1	139499083	6403	45633
1	139522745	6404	45792
1	139546329	6405	46004
1	139570205	6406	46375
1	139594077	6407	46057
1	139617477	6408	45527
1	139641199	6409	45686
1	139665000	6410	46110
1	139688389	6411	45633
1	139712344	6412	46269
1	139736120	6413	45739
1	139760071	6414	47011
1	139783667	6415	45580
1	139807138	6416	45368
1	139831035	6417	46958
1	139855045	6418	46057
1	139878754	6419	45633
1	139902474	6420	45686
1	139926594	6421	47329
1	139950588	6422	46534
1	139974181	6423	45686
1	139997575	6424	44732
1	140020898	6425	45421
1	140044319	6426	44997
1	140067991	6427	46799
1	140091909	6428	45686
1	140115715	6429	46216
1	140139599	6430	46216
1	140162787	6431	44732
1	140186769	6432	46428
1	140210673	6433	46216
1	140234113	6434	45898
1	140257786	6435	45686
1	140281470	6436	45368
1	140305195	6437	46587
1	140329068	6438	45739
1	140353004	6439	47541
1	140376886	6440	45315
1	140400778	6441	46587
1	140424796	6442	46322
1	140448634	6443	45845
1	140472857	6444	47276
1	140496320	6445	45633
1	140520238	6446	46587
1	140544088	6447	45898
1	140568037	6448	46693
1	140591766	6449	45527
1	140615396	6450	45474
1	140639271	6451	46746
1	140663052	6452	45474
1	140686780	6453	46163
1	140710912	6454	47064
1	140734887	6455	46693
1	140758743	6456	46057
1	140782621	6457	46640
1	140806526	6458	46216
1	140830122	6459	45315
1	140854088	6460	46693
1	140878004	6461	46163
1	140901769	6462	45474
1	140925587	6463	46322
1	140949941	6464	47541
1	140973678	6465	45739
1	140997661	6466	46587
1	141021372	6467	46004
1	141045485	6468	47223
1	141069139	6469	46057
1	141092860	6470	45209
1	141116206	6471	45209
1	141139654	6472	45474
1	141163425	6473	46322
1	141187453	6474	46587
1	141211434	6475	45580
1	141235580	6476	47329
1	141259370	6477	46640
1	141283635	6478	46534
1	141307966	6479	47011
1	141331901	6480	46428
1	141355928	6481	46799
1	141379884	6482	46534
1	141403780	6483	46216
1	141427755	6484	46428
1	141452076	6485	47011
1	141475867	6486	46163
1	141499978	6487	46746
1	141523989	6488	46322
1	141547766	6489	46375
1	141571777	6490	46640
1	141595679	6491	46375
1	141620063	6492	46905
1	141644227	6493	46640
1	141668068	6494	46269
1	141692417	6495	47223
1	141716618	6496	46958
1	141740888	6497	46534
1	141765031	6498	47223
1	141789364	6499	46534
1	141813513	6500	47488
1	141837741	6501	46534
1	141861630	6502	46110
1	141885492	6503	46693
1	141909538	6504	46587
1	141933717	6505	47011
1	141957596	6506	45633
1	141981762	6507	47223
1	142006030	6508	47223
1	142030198	6509	46587
1	142054067	6510	46004
1	142078121	6511	46587
1	142102199	6512	46428
1	142126425	6513	46958
1	142150697	6514	47170
1	142174913	6515	46799
1	142199129	6516	47382
1	142222942	6517	45527
1	142246925	6518	47117
1	142270843	6519	46269
1	142294984	6520	47064
1	142318869	6521	45580
1	142343003	6522	46693
1	142367095	6523	47276
1	142391525	6524	46428
1	142415732	6525	47806
1	142440128	6526	47117
1	142464006	6527	46057
1	142488219	6528	47117
1	142512204	6529	46481
1	142536357	6530	46322
1	142560757	6531	47594
1	142585052	6532	47223
1	142609524	6533	47276
1	142634372	6534	48442
1	142658786	6535	47170
1	142683057	6536	46852
1	142707335	6537	47117
1	142731670	6538	47488
1	142756167	6539	47117
1	142780714	6540	47382
1	142805008	6541	47329
1	142829424	6542	47223
1	142853779	6543	47170
1	142878386	6544	48389
1	142902774	6545	46216
1	142927186	6546	48230
1	142951630	6547	46905
1	142976002	6548	46905
1	143000328	6549	46852
1	143024584	6550	47435
1	143049204	6551	47912
1	143073671	6552	47276
1	143098016	6553	46905
1	143122590	6554	48336
1	143147165	6555	46746
1	143171653	6556	47276
1	143195900	6557	47965
1	143220215	6558	47329
1	143244848	6559	46958
1	143269120	6560	46852
1	143293395	6561	47117
1	143317772	6562	47223
1	143342147	6563	46958
1	143366856	6564	48601
1	143391408	6565	47170
1	143415509	6566	46799
1	143439915	6567	46905
1	143464395	6568	48071
1	143488661	6569	46428
1	143512988	6570	47329
1	143537433	6571	47488
1	143561906	6572	47117
1	143585867	6573	45898
1	143610244	6574	48071
1	143634070	6575	46428
1	143658530	6576	47011
1	143682580	6577	46269
1	143706745	6578	47064
1	143731130	6579	47435
1	143755279	6580	46693
1	143779473	6581	47223
1	143804017	6582	47541
1	143828209	6583	46057
1	143852612	6584	47806
1	143876636	6585	46693
1	143900617	6586	45527
1	143924981	6587	47594
1	143949498	6588	47647
1	143973817	6589	47594
1	143997514	6590	45686
1	144021455	6591	46852
1	144045463	6592	46216
1	144069682	6593	47117
1	144093843	6594	46375
1	144118154	6595	47170
1	144142307	6596	46799
1	144166821	6597	47594
1	144191166	6598	47011
1	144215798	6599	47912
1	144240149	6600	46958
1	144264136	6601	46534
1	144288625	6602	47488
1	144312767	6603	46746
1	144337165	6604	47170
1	144361309	6605	47170
1	144385532	6606	46481
1	144409839	6607	47011
1	144434393	6608	47965
1	144458959	6609	47594
1	144483564	6610	47170
1	144508064	6611	48230
1	144532766	6612	47488
1	144557370	6613	47859
1	144581839	6614	47435
1	144606171	6615	46799
1	144630791	6616	48018
1	144655426	6617	47647
1	144680209	6618	47859
1	144705033	6619	48018
1	144729674	6620	48495
1	144754344	6621	47170
1	144779232	6622	48707
1	144803882	6623	47435
1	144828311	6624	47806
1	144853002	6625	47594
1	144877426	6626	46958
1	144902269	6627	48177
1	144926967	6628	47700
1	144951565	6629	47382
1	144976821	6630	49767
1	145001615	6631	48124
1	145026568	6632	47806
1	145051988	6633	49555
1	145077078	6634	48707
1	145102212	6635	48601
1	145127167	6636	48495
1	145151941	6637	47382
1	145176636	6638	48124
1	145201123	6639	47382
1	145225894	6640	48230
1	145250647	6641	47965
1	145275395	6642	47753
1	145299885	6643	47382
1	145324849	6644	48866
1	145349873	6645	48442
1	145374604	6646	47700
1	145399470	6647	48018
1	145424362	6648	48018
1	145449186	6649	48601
1	145474267	6650	47912
1	145499052	6651	48707
1	145524150	6652	48707
1	145549083	6653	47329
1	145574024	6654	49025
1	145599038	6655	48442
1	145623644	6656	48124
1	145648584	6657	47912
1	145673641	6658	48018
1	145698351	6659	48283
1	145722545	6660	47223
1	145747006	6661	47541
1	145771341	6662	46587
1	145796024	6663	48495
1	145820246	6664	46057
1	145844646	6665	47859
1	145869280	6666	47435
1	145893688	6667	47170
1	145918184	6668	46958
1	145942573	6669	47859
1	145967116	6670	47859
1	145991557	6671	46958
1	146016114	6672	47541
1	146040480	6673	47488
1	146064708	6674	46852
1	146088913	6675	47117
1	146113378	6676	47064
1	146137560	6677	46534
1	146162264	6678	47806
1	146186507	6679	47329
1	146210719	6680	46799
1	146235468	6681	47859
1	146260230	6682	48177
1	146284981	6683	47965
1	146309234	6684	46534
1	146334004	6685	49131
1	146358317	6686	46110
1	146382923	6687	47806
1	146407335	6688	47647
1	146431919	6689	47329
1	146456828	6690	48336
1	146480870	6691	46481
1	146505465	6692	47329
1	146529870	6693	47382
1	146554657	6694	48177
1	146579633	6695	49131
1	146604368	6696	46958
1	146628837	6697	47382
1	146653310	6698	47541
1	146677995	6699	47965
1	146703085	6700	49343
1	146727532	6701	46958
1	146752475	6702	48177
1	146777418	6703	48919
1	146801985	6704	47117
1	146826761	6705	48336
1	146851336	6706	47647
1	146875461	6707	46375
1	146899920	6708	47488
1	146924781	6709	48548
1	146949203	6710	46693
1	146973880	6711	48283
1	146998465	6712	47488
1	147023218	6713	48124
1	147047770	6714	47011
1	147072380	6715	47965
1	147096910	6716	47488
1	147121592	6717	47912
1	147146017	6718	47435
1	147170470	6719	48018
1	147194668	6720	46375
1	147219075	6721	47064
1	147243277	6722	46587
1	147267601	6723	47700
1	147292161	6724	47223
1	147316466	6725	47541
1	147340986	6726	47329
1	147365137	6727	46534
1	147389427	6728	47064
1	147413777	6729	47276
1	147438154	6730	46746
1	147462408	6731	47859
1	147487294	6732	48018
1	147511446	6733	46693
1	147536005	6734	47806
1	147560595	6735	47170
1	147585078	6736	47541
1	147609536	6737	47594
1	147633906	6738	47223
1	147658330	6739	47117
1	147682571	6740	46958
1	147706946	6741	46958
1	147731630	6742	47859
1	147755603	6743	46375
1	147779411	6744	46587
1	147802900	6745	45421
1	147826488	6746	45474
1	147849697	6747	45156
1	147873702	6748	46216
1	147897348	6749	46163
1	147921118	6750	46110
1	147944960	6751	46057
1	147968560	6752	45368
1	147992565	6753	47223
1	148016437	6754	45792
1	148040083	6755	46057
1	148064375	6756	47382
1	148088225	6757	45792
1	148112234	6758	46746
1	148136025	6759	45792
1	148159667	6760	45845
1	148183641	6761	46163
1	148207386	6762	46534
1	148231539	6763	46799
1	148255082	6764	44732
1	148278980	6765	46852
1	148302627	6766	45315
1	148326537	6767	46693
1	148350515	6768	46799
1	148374222	6769	45845
1	148397871	6770	45580
1	148421951	6771	46958
1	148445915	6772	47011
1	148469729	6773	45209
1	148493495	6774	45898
1	148517234	6775	46269
1	148541199	6776	45739
1	148565098	6777	47011
1	148588955	6778	46269
1	148612685	6779	45739
1	148636794	6780	46587
1	148660602	6781	46216
1	148684555	6782	46481
1	148708367	6783	45898
1	148732212	6784	46216
1	148756281	6785	46481
1	148780337	6786	46481
1	148803954	6787	45421
1	148827720	6788	46693
1	148851647	6789	46799
1	148875530	6790	45845
1	148899627	6791	46905
1	148923637	6792	46481
1	148948206	6793	47912
1	148972337	6794	46322
1	148996338	6795	46534
1	149020550	6796	46746
1	149044610	6797	46110
1	149068631	6798	47064
1	149092952	6799	47276
1	149117291	6800	46958
1	149141544	6801	47064
1	149165646	6802	46163
1	149189933	6803	47700
1	149214382	6804	47276
1	149238587	6805	47064
1	149262826	6806	46958
1	149286815	6807	46216
1	149310785	6808	46746
1	149334846	6809	45898
1	149358800	6810	47064
1	149382912	6811	46428
1	149407037	6812	47170
1	149430906	6813	45686
1	149455108	6814	46640
1	149479394	6815	47488
1	149503701	6816	46905
1	149527916	6817	47223
1	149552130	6818	47011
1	149576501	6819	46693
1	149600817	6820	47170
1	149625044	6821	47117
1	149649242	6822	47276
1	149673476	6823	46375
1	149697631	6824	47488
1	149721785	6825	46322
1	149745870	6826	46799
1	149770435	6827	47276
1	149794890	6828	48283
1	149819278	6829	46534
1	149843315	6830	46852
1	149867590	6831	46481
1	149891640	6832	47435
1	149915982	6833	46640
1	149940438	6834	48018
1	149964274	6835	45262
1	149988477	6836	47435
1	150012433	6837	46163
1	150036561	6838	46375
1	150060779	6839	47064
1	150085064	6840	46746
1	150109153	6841	47064
1	150133557	6842	47541
1	150157712	6843	46587
1	150182018	6844	47329
1	150205874	6845	45686
1	150229626	6846	46322
1	150253943	6847	47117
1	150278009	6848	46640
1	150302094	6849	46375
1	150326498	6850	48018
1	150350619	6851	46110
1	150374499	6852	46216
1	150398507	6853	46746
1	150422443	6854	46216
1	150446736	6855	47435
1	150470659	6856	46163
1	150494764	6857	46481
1	150518595	6858	46746
1	150542776	6859	46004
1	150566963	6860	47382
1	150590897	6861	46587
1	150614534	6862	45474
1	150638881	6863	47223
1	150662620	6864	46534
1	150686535	6865	45262
1	150710893	6866	47859
1	150734744	6867	46587
1	150758518	6868	45050
1	150782273	6869	46640
1	150806567	6870	46958
1	150830608	6871	46428
1	150854653	6872	46322
1	150878483	6873	46322
1	150902198	6874	46375
1	150925790	6875	45527
1	150949317	6876	45156
1	150973529	6877	47700
1	150997391	6878	45315
1	151021422	6879	46216
1	151045149	6880	47011
1	151068873	6881	45421
1	151092585	6882	45792
1	151116336	6883	46534
1	151140110	6884	45739
1	151163844	6885	46375
1	151187698	6886	46375
1	151211177	6887	44997
1	151234966	6888	46269
1	151259109	6889	46905
1	151282879	6890	45898
1	151306340	6891	44997
1	151330319	6892	46640
1	151354197	6893	46004
1	151377842	6894	46640
1	151401584	6895	45262
1	151425421	6896	46481
1	151449246	6897	46057
1	151473146	6898	46640
1	151497092	6899	45951
1	151521215	6900	47170
1	151545102	6901	46375
1	151569412	6902	47382
1	151593388	6903	46110
1	151617179	6904	45792
1	151641328	6905	46905
1	151665614	6906	46799
1	151689599	6907	46375
1	151713534	6908	46587
1	151737320	6909	46587
1	151761225	6910	45686
1	151785501	6911	47011
1	151809455	6912	46746
1	151833287	6913	46216
1	151856900	6914	45315
1	151881028	6915	46693
1	151904990	6916	46428
1	151928908	6917	46534
1	151952850	6918	46905
1	151976977	6919	46746
1	152000924	6920	46216
1	152024678	6921	45845
1	152048621	6922	46375
1	152072798	6923	47064
1	152096971	6924	46163
1	152120798	6925	46534
1	152144906	6926	47276
1	152168569	6927	45580
1	152192341	6928	45739
1	152215851	6929	45209
1	152239776	6930	47064
1	152263900	6931	46746
1	152287596	6932	45209
1	152311180	6933	46004
1	152335198	6934	46958
1	152358994	6935	45686
1	152382815	6936	45792
1	152406799	6937	46905
1	152430330	6938	45368
1	152454250	6939	46322
1	152477691	6940	44944
1	152501584	6941	46269
1	152525365	6942	47011
1	152549043	6943	44838
1	152573066	6944	47382
1	152596575	6945	44838
1	152620257	6946	46587
1	152643844	6947	45580
1	152667599	6948	45739
1	152691249	6949	45686
1	152715225	6950	46587
1	152739124	6951	46269
1	152763238	6952	46746
1	152786934	6953	46163
1	152810697	6954	45898
1	152834289	6955	45633
1	152858198	6956	46163
1	152881793	6957	46216
1	152905469	6958	45421
1	152929175	6959	45527
1	152953113	6960	47382
1	152976998	6961	45898
1	153000738	6962	46481
1	153024471	6963	45050
1	153048404	6964	46322
1	153072053	6965	46799
1	153095663	6966	44785
1	153119471	6967	46428
1	153143275	6968	45792
1	153167172	6969	46852
1	153191088	6970	45739
1	153214685	6971	45580
1	153238567	6972	46534
1	153262518	6973	47011
1	153286213	6974	45421
1	153310064	6975	46640
1	153333540	6976	44997
1	153357298	6977	46375
1	153380885	6978	45792
1	153404549	6979	45209
1	153428540	6980	46746
1	153452285	6981	45845
1	153475926	6982	45951
1	153499941	6983	46746
1	153524024	6984	46746
1	153547969	6985	46534
1	153571630	6986	45315
1	153595483	6987	46905
1	153619589	6988	46375
1	153643241	6989	46004
1	153667072	6990	45633
1	153691051	6991	46640
1	153715303	6992	47488
1	153738960	6993	45474
1	153762846	6994	46163
1	153786825	6995	47223
1	153810637	6996	45315
1	153834383	6997	46057
1	153857873	6998	45474
1	153881766	6999	45686
1	153905470	7000	46587
1	153929157	7001	46428
1	153952881	7002	45368
1	153976526	7003	46587
1	154000227	7004	45315
1	154024275	7005	46958
1	154048227	7006	45951
1	154072156	7007	46905
1	154095507	7008	44838
1	154119540	7009	46110
1	154143117	7010	45474
1	154166759	7011	46322
1	154190545	7012	46852
1	154214090	7013	44944
1	154238095	7014	46375
1	154261875	7015	46216
1	154285222	7016	45050
1	154308917	7017	45951
1	154332457	7018	45156
1	154356447	7019	47329
1	154380074	7020	45368
1	154403724	7021	45474
1	154427458	7022	46163
1	154451249	7023	46481
1	154475085	7024	46110
1	154498517	7025	45262
1	154522202	7026	45898
1	154545717	7027	45898
1	154569234	7028	45739
1	154593013	7029	45686
1	154616597	7030	45686
1	154639905	7031	45209
1	154663542	7032	45315
1	154687366	7033	46693
1	154711058	7034	45315
1	154734647	7035	46322
1	154758443	7036	45580
1	154782334	7037	46428
1	154805881	7038	45580
1	154829242	7039	45262
1	154853018	7040	46057
1	154876796	7041	46534
1	154899964	7042	44785
1	154923834	7043	46163
1	154947478	7044	45421
1	154971214	7045	46110
1	154995097	7046	46587
1	155018872	7047	45739
1	155042731	7048	46693
1	155066517	7049	45474
1	155090407	7050	46799
1	155114429	7051	46375
1	155138129	7052	45845
1	155162307	7053	46852
1	155186407	7054	47011
1	155210694	7055	47064
1	155234762	7056	46163
1	155258906	7057	47064
1	155282771	7058	45633
1	155307051	7059	48018
1	155331078	7060	46428
1	155355245	7061	46481
1	155379484	7062	47011
1	155403257	7063	46110
1	155427382	7064	46852
1	155451320	7065	46216
1	155475502	7066	46958
1	155499385	7067	46110
1	155523754	7068	46958
1	155547805	7069	47170
1	155572083	7070	46534
1	155596364	7071	47064
1	155620435	7072	46693
1	155644219	7073	45792
1	155668683	7074	47859
1	155692794	7075	46534
1	155716743	7076	46799
1	155741015	7077	46746
1	155765236	7078	46746
1	155789439	7079	46428
1	155813769	7080	47488
1	155837913	7081	46958
1	155861934	7082	46322
1	155886234	7083	47170
1	155910617	7084	47753
1	155935022	7085	46852
1	155959455	7086	47859
1	155983822	7087	46852
1	156008181	7088	46799
1	156032584	7089	47488
1	156057101	7090	47965
1	156081415	7091	46004
1	156106287	7092	48919
1	156130788	7093	47329
1	156155275	7094	47435
1	156179859	7095	47753
1	156204289	7096	47806
1	156228939	7097	47064
1	156253543	7098	47276
1	156278082	7099	48336
1	156302874	7100	47806
1	156327559	7101	48442
1	156351849	7102	46110
1	156376707	7103	48866
1	156400831	7104	46163
1	156425543	7105	48442
1	156449860	7106	46428
1	156474627	7107	49078
1	156498980	7108	46693
1	156523559	7109	47329
1	156548064	7110	47594
1	156572354	7111	47117
1	156596662	7112	47170
1	156621206	7113	47594
1	156645791	7114	47806
1	156670286	7115	47329
1	156694685	7116	47488
1	156719693	7117	47965
1	156743938	7118	46746
1	156768743	7119	48601
1	156793479	7120	47912
1	156818077	7121	47382
1	156842459	7122	47488
1	156866899	7123	47064
1	156891164	7124	46693
1	156915994	7125	48336
1	156940204	7126	47117
1	156964751	7127	47435
1	156989166	7128	47329
1	157013721	7129	47700
1	157037850	7130	46958
1	157062810	7131	47859
1	157087156	7132	47170
1	157111407	7133	46852
1	157135855	7134	48018
1	157160082	7135	46958
1	157184655	7136	46746
1	157209135	7137	47488
1	157233694	7138	48177
1	157258221	7139	47064
1	157283081	7140	48601
1	157307511	7141	47011
1	157332089	7142	48389
1	157356645	7143	47541