version 2
run AimdCC-2-20100909-02:31:14-3068
attr configname AimdCC
attr datetime 20100909-02:31:14
attr experiment AimdCC
attr inifile D:/Developement/Oversim2/multic/simulations/omnetpp.ini
attr iterationvars $nhops=4
attr iterationvars2 "$nhops=4, $repetition=0"
attr measurement $nhops=4
attr network oversim.underlay.simpleunderlay.SimpleUnderlayNetwork
attr nhops 4
attr processid 3068
attr repetition 0
attr replication #0
attr resultdir results
attr runnumber 2
attr seedset 2

vector 1  SimpleUnderlayNetwork.globalObserver.globalStatistics  incoming_bytes  ETV
vector 2  SimpleUnderlayNetwork.globalObserver.globalStatistics  drops  ETV
vector 3  SimpleUnderlayNetwork.globalObserver.globalStatistics  delayed_acks  ETV
vector 4  SimpleUnderlayNetwork.globalObserver.globalStatistics  timetotimeouts  ETV
vector 5  SimpleUnderlayNetwork.globalObserver.globalStatistics  9rateOf1To0  ETV
vector 6  SimpleUnderlayNetwork.globalObserver.globalStatistics  max9RateOf1To0  ETV
vector 7  SimpleUnderlayNetwork.globalObserver.globalStatistics  9rateOf1To1  ETV
vector 8  SimpleUnderlayNetwork.globalObserver.globalStatistics  max9RateOf1To1  ETV
vector 9  SimpleUnderlayNetwork.globalObserver.globalStatistics  9rateOf1To2  ETV
vector 10  SimpleUnderlayNetwork.globalObserver.globalStatistics  max9RateOf1To2  ETV
vector 11  SimpleUnderlayNetwork.globalObserver.globalStatistics  9rateOf1To3  ETV
vector 12  SimpleUnderlayNetwork.globalObserver.globalStatistics  max9RateOf1To3  ETV
vector 13  SimpleUnderlayNetwork.globalObserver.globalStatistics  9rateOf1To4  ETV
vector 14  SimpleUnderlayNetwork.globalObserver.globalStatistics  max9RateOf1To4  ETV
vector 15  SimpleUnderlayNetwork.globalObserver.globalStatistics  9rateOf1To5  ETV
vector 16  SimpleUnderlayNetwork.globalObserver.globalStatistics  max9RateOf1To5  ETV
vector 17  SimpleUnderlayNetwork.globalObserver.globalStatistics  9rateOf1To6  ETV
vector 18  SimpleUnderlayNetwork.globalObserver.globalStatistics  max9RateOf1To6  ETV
vector 19  SimpleUnderlayNetwork.globalObserver.globalStatistics  9rateOf1To7  ETV
vector 20  SimpleUnderlayNetwork.globalObserver.globalStatistics  max9RateOf1To7  ETV
vector 21  SimpleUnderlayNetwork.globalObserver.globalStatistics  9rateOf1To8  ETV
vector 22  SimpleUnderlayNetwork.globalObserver.globalStatistics  max9RateOf1To8  ETV
vector 23  SimpleUnderlayNetwork.globalObserver.globalStatistics  9rateOf1To9  ETV
vector 24  SimpleUnderlayNetwork.globalObserver.globalStatistics  max9RateOf1To9  ETV
vector 25  SimpleUnderlayNetwork.globalObserver.globalStatistics  1rate  ETV
vector 26  SimpleUnderlayNetwork.globalObserver.globalStatistics  max2Rate  ETV
vector 27  SimpleUnderlayNetwork.globalObserver.globalStatistics  "GlobalNodeList: Number of nodes"  ETV
vector 28  SimpleUnderlayNetwork.globalObserver.globalStatistics  "GlobalNodeList: Number of bootstrapped malicious nodes"  ETV
1	117795101	6018	35563
1	117817095	6019	35033
1	117839270	6020	35245
1	117861388	6021	35298
1	117883446	6022	34503
1	117905811	6023	35881
1	117928064	6024	34980
1	117950227	6025	35298
1	117972473	6026	35245
1	117994476	6027	34503
1	118016933	6028	35351
1	118039629	6029	36252
1	118062015	6030	35775
1	118084254	6031	35775
1	118106245	6032	34238
1	118128873	6033	36305
1	118151068	6034	34662
1	118173902	6035	36623
1	118196206	6036	34980
1	118218186	6037	35192
1	118240219	6038	34662
1	118262737	6039	35828
1	118285040	6040	35987
1	118307537	6041	35139
1	118329960	6042	36040
1	118352132	6043	34344
1	118374444	6044	36517
1	118396764	6045	34874
1	118419067	6046	35086
1	118441335	6047	34980
1	118463342	6048	35404
1	118485563	6049	35563
1	118508225	6050	35563
1	118530119	6051	34768
1	118552264	6052	35086
1	118574225	6053	34715
1	118596785	6054	36517
1	118619160	6055	35086
1	118641869	6056	36040
1	118664392	6057	35298
1	118686399	6058	35616
1	118708829	6059	35033
1	118731089	6060	35669
1	118753629	6061	35669
1	118775756	6062	35086
1	118798131	6063	35404
1	118820617	6064	35351
1	118842605	6065	35775
1	118864921	6066	34715
1	118886929	6067	35510
1	118909458	6068	35563
1	118931534	6069	35033
1	118953872	6070	35245
1	118975449	6071	34556
1	118997482	6072	34609
1	119019755	6073	35404
1	119041837	6074	34980
1	119064179	6075	35457
1	119086490	6076	35616
1	119108943	6077	35351
1	119130974	6078	35510
1	119153509	6079	35457
1	119175765	6080	35351
1	119198057	6081	35616
1	119220523	6082	35245
1	119242982	6083	35669
1	119265277	6084	35245
1	119287725	6085	35775
1	119309919	6086	35298
1	119332230	6087	35510
1	119354216	6088	34768
1	119376771	6089	35404
1	119398987	6090	35192
1	119421052	6091	35510
1	119443139	6092	35033
1	119465323	6093	35298
1	119487770	6094	35563
1	119509981	6095	35086
1	119532096	6096	34609
1	119554575	6097	36358
1	119576973	6098	35245
1	119599130	6099	35298
1	119621538	6100	35616
1	119643904	6101	35457
1	119666180	6102	35192
1	119688737	6103	35616
1	119710781	6104	35033
1	119733001	6105	35775
1	119755566	6106	35245
1	119778437	6107	36888
1	119800765	6108	35192
1	119823104	6109	34503
1	119845581	6110	36464
1	119867908	6111	35192
1	119890436	6112	35934
1	119912955	6113	36358
1	119934864	6114	34132
1	119957181	6115	35404
1	119979686	6116	35828
1	120002358	6117	36199
1	120024789	6118	35086
1	120046937	6119	35192
1	120069323	6120	34980
1	120091739	6121	36199
1	120114360	6122	35881
1	120136913	6123	35563
1	120160108	6124	36676
1	120182325	6125	35722
1	120204977	6126	35775
1	120227878	6127	36146
1	120250237	6128	35563
1	120272929	6129	35934
1	120295584	6130	36146
1	120318568	6131	36941
1	120341163	6132	35298
1	120363639	6133	35775
1	120386330	6134	36199
1	120409021	6135	35881
1	120431673	6136	35987
1	120454231	6137	35881
1	120476747	6138	35351
1	120499130	6139	36199
1	120521629	6140	35404
1	120544318	6141	36199
1	120567073	6142	35828
1	120589529	6143	35563
1	120611582	6144	35298
1	120634084	6145	36040
1	120656763	6146	34609
1	120679223	6147	36305
1	120701856	6148	36199
1	120723963	6149	35033
1	120746960	6150	36358
1	120769576	6151	35881
1	120792321	6152	35775
1	120814762	6153	35828
1	120837561	6154	36411
1	120860106	6155	35669
1	120882676	6156	35669
1	120905179	6157	35828
1	120927820	6158	35934
1	120950030	6159	35510
1	120972414	6160	35510
1	120994905	6161	35563
1	121017487	6162	35616
1	121040002	6163	35616
1	121062565	6164	36040
1	121085003	6165	35510
1	121107497	6166	35881
1	121130067	6167	35457
1	121152339	6168	34927
1	121174691	6169	36358
1	121197346	6170	35722
1	121219835	6171	35139
1	121242278	6172	35775
1	121264709	6173	35934
1	121286932	6174	34927
1	121309667	6175	36888
1	121332247	6176	35669
1	121354626	6177	34768
1	121377260	6178	36093
1	121399984	6179	36411
1	121422574	6180	35775
1	121445298	6181	35934
1	121467748	6182	35563
1	121490528	6183	35987
1	121513282	6184	36199
1	121536297	6185	36517
1	121559154	6186	36676
1	121581805	6187	35510
1	121604567	6188	36570
1	121627332	6189	36411
1	121649835	6190	35192
1	121672916	6191	36623
1	121695669	6192	35881
1	121718393	6193	36199
1	121741154	6194	36358
1	121764121	6195	36305
1	121786927	6196	36570
1	121809840	6197	36199
1	121832815	6198	35775
1	121855563	6199	36199
1	121878424	6200	36570
1	121901058	6201	36093
1	121924063	6202	36835
1	121946856	6203	35457
1	121969613	6204	36464
1	121992338	6205	36146
1	122015165	6206	35563
1	122038078	6207	36570
1	122060857	6208	36146
1	122083947	6209	36941
1	122106363	6210	35563
1	122128941	6211	36305
1	122151835	6212	35934
1	122174565	6213	35828
1	122197369	6214	36676
1	122220061	6215	35351
1	122242688	6216	36305
1	122265252	6217	35510
1	122287921	6218	35828
1	122310900	6219	36941
1	122333826	6220	36358
1	122356559	6221	36411
1	122379589	6222	36305
1	122402315	6223	35934
1	122424859	6224	35510
1	122447432	6225	35457
1	122470042	6226	36093
1	122493182	6227	36941
1	122515808	6228	35775
1	122538238	6229	36040
1	122561024	6230	35351
1	122583890	6231	36570
1	122606360	6232	36358
1	122629174	6233	35616
1	122652128	6234	36570
1	122675031	6235	36199
1	122697851	6236	36411
1	122720504	6237	36040
1	122743667	6238	36888
1	122766534	6239	35775
1	122789491	6240	36464
1	122812303	6241	36199
1	122835109	6242	36146
1	122857976	6243	36252
1	122880717	6244	36252
1	122904061	6245	36782
1	122927181	6246	37047
1	122950010	6247	36040
1	122972787	6248	36305
1	122995840	6249	36570
1	123019095	6250	36358
1	123042197	6251	37418
1	123065242	6252	36358
1	123087819	6253	35404
1	123110866	6254	37047
1	123133546	6255	36252
1	123156092	6256	35139
1	123178861	6257	36146
1	123201939	6258	36305
1	123224842	6259	36623
1	123247880	6260	36411
1	123270666	6261	36464
1	123293272	6262	35987
1	123316216	6263	35987
1	123338850	6264	35881
1	123361759	6265	36782
1	123385040	6266	36888
1	123407816	6267	36570
1	123430956	6268	36199
1	123453581	6269	35881
1	123476541	6270	36570
1	123499551	6271	36517
1	123522447	6272	35934
1	123545199	6273	36199
1	123568174	6274	36570
1	123591745	6275	37524
1	123614839	6276	36570
1	123637805	6277	36464
1	123660547	6278	36146
1	123683844	6279	36570
1	123706704	6280	36570
1	123729806	6281	36517
1	123752714	6282	36782
1	123775706	6283	35987
1	123798846	6284	36994
1	123821858	6285	36835
1	123844893	6286	35987
1	123867761	6287	36305
1	123890947	6288	36941
1	123914051	6289	36623
1	123937051	6290	36411
1	123960125	6291	37047
1	123983313	6292	36888
1	124006539	6293	36040
1	124029742	6294	37206
1	124052773	6295	36411
1	124075691	6296	36252
1	124099010	6297	36782
1	124121751	6298	36782
1	124145165	6299	36835
1	124168339	6300	36040
1	124191700	6301	37153
1	124214599	6302	36623
1	124237830	6303	36570
1	124261190	6304	37047
1	124284232	6305	36994
1	124307425	6306	36570
1	124330290	6307	36040
1	124353677	6308	37471
1	124376598	6309	36252
1	124400068	6310	37842
1	124423235	6311	36570
1	124446245	6312	35828
1	124469139	6313	36411
1	124492256	6314	37365
1	124515304	6315	36305
1	124538112	6316	36252
1	124560849	6317	35934
1	124583863	6318	36676
1	124606647	6319	35881
1	124630099	6320	37100
1	124652895	6321	36994
1	124675883	6322	35563
1	124699020	6323	37312
1	124721796	6324	35987
1	124744752	6325	36146
1	124767810	6326	37047
1	124790686	6327	35457
1	124814041	6328	38160
1	124837256	6329	35987
1	124860285	6330	36676
1	124883173	6331	36358
1	124906313	6332	36623
1	124929299	6333	36782
1	124952288	6334	35881
1	124975300	6335	37365
1	124998523	6336	36941
1	125021598	6337	35563
1	125044628	6338	37365
1	125067280	6339	35563
1	125090432	6340	37259
1	125113464	6341	36199
1	125136666	6342	36835
1	125159767	6343	36994
1	125182901	6344	36623
1	125205773	6345	35934
1	125228392	6346	35828
1	125251122	6347	36782
1	125274073	6348	35828
1	125296585	6349	35828
1	125319161	6350	35881
1	125342083	6351	36570
1	125364891	6352	35987
1	125387828	6353	36411
1	125410494	6354	36146
1	125433365	6355	36252
1	125456479	6356	36941
1	125479247	6357	35510
1	125502215	6358	36888
1	125525434	6359	36782
1	125548388	6360	36358
1	125571018	6361	36146
1	125594115	6362	36623
1	125616802	6363	35722
1	125639871	6364	36411
1	125662781	6365	36570
1	125685025	6366	35086
1	125707694	6367	35987
1	125730567	6368	37153
1	125753188	6369	34980
1	125776031	6370	36464
1	125799009	6371	36305
1	125821874	6372	36729
1	125844234	6373	35192
1	125867061	6374	36623
1	125889766	6375	36146
1	125912631	6376	35563
1	125935433	6377	36570
1	125957973	6378	36199
1	125980801	6379	35722
1	126003583	6380	36517
1	126026131	6381	35139
1	126048691	6382	36093
1	126070872	6383	35510
1	126093461	6384	35669
1	126116011	6385	35563
1	126138547	6386	36093
1	126161114	6387	35987
1	126183406	6388	35086
1	126205693	6389	34927
1	126228221	6390	36093
1	126250731	6391	35669
1	126272978	6392	35139
1	126295444	6393	35881
1	126317855	6394	35828
1	126340209	6395	34715
1	126362712	6396	36305
1	126385118	6397	35298
1	126407488	6398	35881
1	126430052	6399	35616
1	126451690	6400	34450
1	126474148	6401	35245
1	126496282	6402	35351
1	126518894	6403	36040
1	126541101	6404	35245
1	126563430	6405	35086
1	126585776	6406	35881
1	126608212	6407	34874
1	126630504	6408	35669
1	126652757	6409	36040
1	126675532	6410	36040
1	126697735	6411	34344
1	126720258	6412	36252
1	126743054	6413	36358
1	126765403	6414	35510
1	126787751	6415	35086
1	126810379	6416	35881
1	126832800	6417	35510
1	126855364	6418	35934
1	126877710	6419	35775
1	126900328	6420	35775
1	126922868	6421	36040
1	126945059	6422	34450
1	126967603	6423	35828
1	126990098	6424	36358
1	127012304	6425	34344
1	127034816	6426	36411
1	127057445	6427	35881
1	127080229	6428	36305
1	127102812	6429	35828
1	127125265	6430	35563
1	127147651	6431	35298
1	127169904	6432	35722
1	127192198	6433	34980
1	127214708	6434	36093
1	127236823	6435	34662
1	127259275	6436	35722
1	127281704	6437	35563
1	127304107	6438	35404
1	127326454	6439	35563
1	127348937	6440	35457
1	127371682	6441	36199
1	127394038	6442	35404
1	127416662	6443	36570
1	127438966	6444	34768
1	127461244	6445	35298
1	127483447	6446	35722
1	127505780	6447	35298
1	127527925	6448	35351
1	127549668	6449	33867
1	127572015	6450	35616
1	127594603	6451	36093
1	127617063	6452	35510
1	127639250	6453	35510
1	127662111	6454	35563
1	127684368	6455	35563
1	127706351	6456	34980
1	127729349	6457	36517
1	127751793	6458	35510
1	127774260	6459	35457
1	127796980	6460	36252
1	127819394	6461	35563
1	127841815	6462	35351
1	127864516	6463	36199
1	127886910	6464	35404
1	127909352	6465	35616
1	127931881	6466	36464
1	127954550	6467	35563
1	127976823	6468	34874
1	127999596	6469	36517
1	128021817	6470	35457
1	128044107	6471	35616
1	128066556	6472	34927
1	128089165	6473	36146
1	128111816	6474	35510
1	128134148	6475	35775
1	128156746	6476	36199
1	128179764	6477	36358
1	128201821	6478	35245
1	128224237	6479	35192
1	128247124	6480	36676
1	128269992	6481	35828
1	128292292	6482	35510
1	128314781	6483	35722
1	128337141	6484	35351
1	128360134	6485	36305
1	128382658	6486	35828
1	128405122	6487	35881
1	128427965	6488	36305
1	128450385	6489	35457
1	128472640	6490	35351
1	128495181	6491	35351
1	128517444	6492	35563
1	128540144	6493	36411
1	128562731	6494	35404
1	128585452	6495	36411
1	128608216	6496	36623
1	128631458	6497	36570
1	128654190	6498	35934
1	128676771	6499	35722
1	128699207	6500	35139
1	128721641	6501	36040
1	128744129	6502	35669
1	128766750	6503	35669
1	128789304	6504	35881
1	128812166	6505	36252
1	128834791	6506	36411
1	128857776	6507	35934
1	128880311	6508	35934
1	128903446	6509	36305
1	128926521	6510	36623
1	128949551	6511	36888
1	128972306	6512	36252
1	128995602	6513	36623
1	129018443	6514	35881
1	129041340	6515	36835
1	129063929	6516	35828
1	129086887	6517	36252
1	129109988	6518	37418
1	129133061	6519	35881
1	129155991	6520	36517
1	129179173	6521	36464
1	129202205	6522	36941
1	129225328	6523	36888
1	129248307	6524	36252
1	129271506	6525	36994
1	129294389	6526	35881
1	129317549	6527	37153
1	129340941	6528	37100
1	129364237	6529	37100
1	129387266	6530	36358
1	129410467	6531	36941
1	129434027	6532	37418
1	129457207	6533	36464
1	129480418	6534	36994
1	129503274	6535	36040
1	129526739	6536	37577
1	129549757	6537	35987
1	129573025	6538	37259
1	129596298	6539	36835
1	129619356	6540	36305
1	129642846	6541	37683
1	129665763	6542	36517
1	129688707	6543	36040
1	129711625	6544	36358
1	129734772	6545	36570
1	129758097	6546	37418
1	129781263	6547	36994
1	129804728	6548	36835
1	129828078	6549	37312
1	129851359	6550	36676
1	129874333	6551	36464
1	129897688	6552	37100
1	129920516	6553	36146
1	129943477	6554	36676
1	129966745	6555	36835
1	129989969	6556	37047
1	130013254	6557	36676
1	130036179	6558	36464
1	130059422	6559	36623
1	130082836	6560	37577
1	130105862	6561	36464
1	130129184	6562	37100
1	130152607	6563	36888
1	130175380	6564	36093
1	130198283	6565	36729
1	130221260	6566	36358
1	130244021	6567	35616
1	130266942	6568	36570
1	130289913	6569	36570
1	130313005	6570	36888
1	130335985	6571	35934
1	130359047	6572	36676
1	130382105	6573	37047
1	130404689	6574	35722
1	130427322	6575	35987
1	130450093	6576	35616
1	130473199	6577	36517
1	130496322	6578	36729
1	130518850	6579	36093
1	130540867	6580	35033
1	130563023	6581	34609
1	130585246	6582	35616
1	130607536	6583	34821
1	130629889	6584	35881
1	130652154	6585	35139
1	130674163	6586	34715
1	130696931	6587	36411
1	130719268	6588	35987
1	130741742	6589	35616
1	130764000	6590	34980
1	130786697	6591	36305
1	130809015	6592	34662
1	130831145	6593	35192
1	130853573	6594	35987
1	130876000	6595	35351
1	130898719	6596	36411
1	130921267	6597	35775
1	130943301	6598	34556
1	130965410	6599	35298
1	130987728	6600	34927
1	131009831	6601	35616
1	131032057	6602	34874
1	131054082	6603	35245
1	131076265	6604	35245
1	131098547	6605	35192
1	131120628	6606	35245
1	131142777	6607	34662
1	131165028	6608	35616
1	131187174	6609	35616
1	131209629	6610	35457
1	131232354	6611	35616
1	131254454	6612	35404
1	131276497	6613	34715
1	131298914	6614	35457
1	131321286	6615	35510
1	131343632	6616	35934
1	131365866	6617	35245
1	131388327	6618	35616
1	131410686	6619	35351
1	131433351	6620	35934
1	131455837	6621	35987
1	131477987	6622	34927
1	131500053	6623	34768
1	131522338	6624	35510
1	131544665	6625	35616
1	131566864	6626	34980
1	131588998	6627	34980
1	131611448	6628	35828
1	131633882	6629	35510
1	131656390	6630	35616
1	131678469	6631	35404
1	131700914	6632	35033
1	131723794	6633	36729
1	131745678	6634	34397
1	131768235	6635	35934
1	131790462	6636	35563
1	131812591	6637	34927
1	131834572	6638	35033
1	131856663	6639	35351
1	131879045	6640	35404
1	131901399	6641	35510
1	131923917	6642	35563
1	131946478	6643	35775
1	131968638	6644	34768
1	131990806	6645	35245
1	132012928	6646	35457
1	132035092	6647	35245
1	132057162	6648	34344
1	132079593	6649	36305
1	132101807	6650	35139
1	132124109	6651	34980
1	132146139	6652	35033
1	132168339	6653	35245
1	132190608	6654	35298
1	132212864	6655	35139
1	132234936	6656	35457
1	132257489	6657	35669
1	132279710	6658	35086
1	132301985	6659	35457
1	132324308	6660	35298
1	132346569	6661	35351
1	132368542	6662	34715
1	132390744	6663	35139
1	132413433	6664	36570
1	132435291	6665	34715
1	132457639	6666	35457
1	132479726	6667	34503
1	132502277	6668	36517
1	132524476	6669	34556
1	132546513	6670	34874
1	132568579	6671	35351
1	132590724	6672	35192
1	132613054	6673	35351
1	132635337	6674	35298
1	132657440	6675	34980
1	132679900	6676	35563
1	132702059	6677	34821
1	132724543	6678	36199
1	132746573	6679	34662
1	132769073	6680	36146
1	132791756	6681	35722
1	132813688	6682	35033
1	132835928	6683	34927
1	132858481	6684	35669
1	132880748	6685	35457
1	132903358	6686	36093
1	132925636	6687	35245
1	132948328	6688	36199
1	132970868	6689	35987
1	132993377	6690	35351
1	133016047	6691	36199
1	133038555	6692	35722
1	133061262	6693	35934
1	133083506	6694	35086
1	133105820	6695	35404
1	133127772	6696	34927
1	133150291	6697	35510
1	133172499	6698	35457
1	133195148	6699	36040
1	133217531	6700	35298
1	133240213	6701	36252
1	133262417	6702	35192
1	133284661	6703	35298
1	133306620	6704	34980
1	133329076	6705	35722
1	133351072	6706	34609
1	133373456	6707	35616
1	133395488	6708	35245
1	133417411	6709	34185
1	133439597	6710	35510
1	133461719	6711	35139
1	133484089	6712	35669
1	133506300	6713	34397
1	133528856	6714	36358
1	133551160	6715	35298
1	133573288	6716	34980
1	133595464	6717	35033
1	133617675	6718	35987
1	133640116	6719	35563
1	133662389	6720	35033
1	133684955	6721	35722
1	133707280	6722	35510
1	133730051	6723	35987
1	133752266	6724	35192
1	133774525	6725	35404
1	133796921	6726	35510
1	133819055	6727	34768
1	133841267	6728	35510
1	133863620	6729	35881
1	133886035	6730	34980
1	133908919	6731	36676
1	133931650	6732	36040
1	133953647	6733	34874
1	133976041	6734	35457
1	133998171	6735	34980
1	134020964	6736	36252
1	134043375	6737	35404
1	134065800	6738	35881
1	134087895	6739	34927
1	134110267	6740	35722
1	134132667	6741	35192
1	134154773	6742	35086
1	134177100	6743	35298
1	134199113	6744	34662
1	134221152	6745	35298
1	134243456	6746	35457
1	134265843	6747	35669
1	134288105	6748	35086
1	134310385	6749	35298
1	134332793	6750	35457
1	134355024	6751	35139
1	134377504	6752	36305
1	134399544	6753	34556
1	134421983	6754	35457
1	134444193	6755	35404
1	134466306	6756	35510
1	134488272	6757	34450
1	134510551	6758	35457
1	134532418	6759	34715
1	134554900	6760	35457
1	134577029	6761	35457
1	134599274	6762	34980
1	134621342	6763	35510
1	134643827	6764	35033
1	134666120	6765	35351
1	134688395	6766	35616
1	134710617	6767	35404
1	134732974	6768	35192
1	134755587	6769	36199
1	134778153	6770	35086
1	134800826	6771	36676
1	134823352	6772	35457
1	134845692	6773	35351
1	134868342	6774	36199
1	134890316	6775	34980
1	134912655	6776	35669
1	134935316	6777	35457
1	134957734	6778	35775
1	134980404	6779	35510
1	135002642	6780	36146
1	135024874	6781	33867
1	135047450	6782	36570
1	135069738	6783	35987
1	135092011	6784	34715
1	135114348	6785	35722
1	135136565	6786	34980
1	135158656	6787	35351
1	135181460	6788	35669
1	135203476	6789	34821
1	135225696	6790	35351
1	135248431	6791	36305
1	135271036	6792	36093
1	135292911	6793	34397
1	135315645	6794	35775
1	135338297	6795	36252
1	135360732	6796	35987
1	135382807	6797	34556
1	135405372	6798	36464
1	135427744	6799	34980
1	135450146	6800	35881
1	135472480	6801	35404
1	135494659	6802	34609
1	135517030	6803	36199
1	135538970	6804	34397
1	135560967	6805	34874
1	135583366	6806	35404
1	135605368	6807	35192
1	135627470	6808	35245
1	135649445	6809	35510
1	135671426	6810	33814
1	135693128	6811	34609
1	135715408	6812	35457
1	135737788	6813	35510
1	135759467	6814	34556
1	135781941	6815	35139
1	135804039	6816	35457
1	135826365	6817	35563
1	135848385	6818	34927
1	135870533	6819	34927
1	135892554	6820	35245
1	135914220	6821	34185
1	135936394	6822	34715
1	135958052	6823	34768
1	135980074	6824	34662
1	136002189	6825	35404
1	136024162	6826	34874
1	136046361	6827	34503
1	136068408	6828	35457
1	136090711	6829	35669
1	136112891	6830	34927
1	136134911	6831	34344
1	136157136	6832	35987
1	136179561	6833	35245
1	136201443	6834	35245
1	136223895	6835	34980
1	136246098	6836	35086
1	136268165	6837	35722
1	136290313	6838	35033
1	136312556	6839	35192
1	136334717	6840	34927
1	136357079	6841	35669
1	136379684	6842	36199
1	136401688	6843	34344
1	136423783	6844	35457
1	136446547	6845	35669
1	136468770	6846	35139
1	136491196	6847	35510
1	136513308	6848	35828
1	136535678	6849	34715
1	136557865	6850	35351
1	136580465	6851	36146
1	136602696	6852	35351
1	136625139	6853	35298
1	136647431	6854	35510
1	136669599	6855	35351
1	136691838	6856	35192
1	136714518	6857	35669
1	136736977	6858	35987
1	136759622	6859	35828
1	136782211	6860	35987
1	136804341	6861	35192
1	136826907	6862	35669
1	136849265	6863	35510
1	136871664	6864	34927
1	136894054	6865	35934
1	136916240	6866	35616
1	136939102	6867	35881
1	136961292	6868	35563
1	136983499	6869	35351
1	137005945	6870	35245
1	137028651	6871	36305
1	137050770	6872	34715
1	137073375	6873	36305
1	137095799	6874	35086
1	137118417	6875	36305
1	137140801	6876	35722
1	137163430	6877	35616
1	137185693	6878	35033
1	137208096	6879	35669
1	137230418	6880	35139
1	137252753	6881	35722
1	137274707	6882	34821
1	137296804	6883	35139
1	137318828	6884	34238
1	137340960	6885	35404
1	137362848	6886	34662
1	137385001	6887	35616
1	137407282	6888	35351
1	137429433	6889	34980
1	137451494	6890	35298
1	137473495	6891	34609
1	137495252	6892	34185
1	137517628	6893	36252
1	137539883	6894	34768
1	137562056	6895	35245
1	137584067	6896	34980
1	137605970	6897	34397
1	137628232	6898	35616
1	137650447	6899	35457
1	137672777	6900	34980
1	137695220	6901	35563
1	137717458	6902	34980
1	137739618	6903	36040
1	137761815	6904	34821
1	137783698	6905	34715
1	137805379	6906	34291
1	137827589	6907	35298
1	137850086	6908	35934
1	137871808	6909	34079
1	137894076	6910	35457
1	137916418	6911	35775
1	137938760	6912	35563
1	137961088	6913	35033
1	137983294	6914	35669
1	138005124	6915	34344
1	138026874	6916	34079
1	138049205	6917	35722
1	138071642	6918	36040
1	138093771	6919	34715
1	138115811	6920	35563
1	138138089	6921	34768
1	138160657	6922	35881
1	138183008	6923	35298
1	138205490	6924	35563
1	138227971	6925	35775
1	138250374	6926	35669
1	138272818	6927	35669
1	138295373	6928	35563
1	138317622	6929	35192
1	138339726	6930	35457
1	138361845	6931	34715
1	138383862	6932	35086
1	138406428	6933	35934
1	138428918	6934	35404
1	138451183	6935	35616
1	138473334	6936	34556
1	138495556	6937	35934
1	138517951	6938	35033
1	138540154	6939	35722
1	138562023	6940	34556
1	138584157	6941	35298
1	138606542	6942	35510
1	138628921	6943	35351
1	138651231	6944	35722
1	138673680	6945	35351
1	138695870	6946	35192
1	138717985	6947	34768
1	138739953	6948	35192
1	138762446	6949	35404
1	138784580	6950	35139
1	138806885	6951	35192
1	138829504	6952	36146
1	138851768	6953	35510
1	138873969	6954	34450
1	138896379	6955	36040
1	138918928	6956	35987
1	138941929	6957	36623
1	138964068	6958	34450
1	138986640	6959	36411
1	139008927	6960	35033
1	139031415	6961	35510
1	139054058	6962	36358
1	139076236	6963	35086
1	139098869	6964	35828
1	139121348	6965	35510
1	139143897	6966	35775
1	139166192	6967	35510
1	139188909	6968	35828
1	139211564	6969	36040
1	139233852	6970	35616
1	139256296	6971	35245
1	139279143	6972	36252
1	139301838	6973	36358
1	139324587	6974	35934
1	139346800	6975	34980
1	139369502	6976	35987
1	139392290	6977	36570
1	139415091	6978	36252
1	139437592	6979	35563
1	139460546	6980	36305
1	139482848	6981	35457
1	139505764	6982	36411
1	139528468	6983	36199
1	139551075	6984	35669
1	139573402	6985	35351
1	139596329	6986	36358
1	139618967	6987	35987
1	139641701	6988	36146
1	139664429	6989	35775
1	139687386	6990	36729
1	139710136	6991	36199
1	139732858	6992	35828
1	139755842	6993	36305
1	139778059	6994	35457
1	139800569	6995	36093
1	139823185	6996	34662
1	139845997	6997	36835
1	139868623	6998	35775
1	139891571	6999	36411
1	139914484	7000	36623
1	139937659	7001	37047
1	139960650	7002	35934
1	139983478	7003	36676
1	140006362	7004	36040
1	140029337	7005	36570
1	140052004	7006	36305
1	140074760	7007	35616
1	140097721	7008	36252
1	140120427	7009	35987
1	140142865	7010	36252
1	140165529	7011	35298
1	140188460	7012	36623
1	140210851	7013	35669
1	140233711	7014	36411
1	140256302	7015	36040
1	140279259	7016	35881
1	140302538	7017	37206
1	140325423	7018	36040
1	140348274	7019	36411
1	140371131	7020	35987
1	140394340	7021	36888
1	140417058	7022	36252
1	140439714	7023	36093
1	140462634	7024	35987
1	140485629	7025	36676
1	140508430	7026	35881
1	140531496	7027	36782
1	140554199	7028	36358
1	140576743	7029	35139
1	140599628	7030	36676
1	140622366	7031	35881
1	140644758	7032	35616
1	140666867	7033	35033
1	140689087	7034	35086
1	140711269	7035	34821
1	140733661	7036	35775
1	140755578	7037	34927
1	140777779	7038	35351
1	140800284	7039	35669
1	140822560	7040	35669
1	140844634	7041	34291
1	140867031	7042	36146
1	140889114	7043	34662
1	140911273	7044	34980
1	140933527	7045	34927
1	140955958	7046	36305
1	140978485	7047	35563
1	141000456	7048	34715
1	141022977	7049	36305
1	141044966	7050	34238
1	141067031	7051	35669
1	141089425	7052	34927
1	141111752	7053	35722
1	141134358	7054	35934
1	141156718	7055	35139
1	141178774	7056	35457
1	141201499	7057	35616
1	141223828	7058	35563
1	141246136	7059	35245
1	141268517	7060	35775
1	141290950	7061	35245
1	141313263	7062	35404
1	141335674	7063	35404
1	141358255	7064	36146
1	141380490	7065	34874
1	141402792	7066	35881
1	141424869	7067	34874
1	141446859	7068	34927
1	141468817	7069	34821
1	141491005	7070	35192
1	141512753	7071	34185
1	141534966	7072	35245
1	141557378	7073	35510
1	141579696	7074	36093
1	141602123	7075	34927
1	141624404	7076	35563
1	141646330	7077	34768
1	141668691	7078	35722
1	141690736	7079	35139
1	141712443	7080	34079
1	141734350	7081	34874
1	141756584	7082	34980
1	141778160	7083	34026
1	141800145	7084	35033
1	141822815	7085	36305
1	141845012	7086	34980
1	141867056	7087	35086
1	141889195	7088	35033
1	141911273	7089	35298
1	141933461	7090	35139
1	141955505	7091	34715
1	141977361	7092	35192
1	141999211	7093	34450
1	142021529	7094	35192
1	142043472	7095	35192
1	142065703	7096	34821
1	142088207	7097	35775
1	142110602	7098	35722
1	142132870	7099	35192
1	142154935	7100	34450
1	142177139	7101	35351
1	142199219	7102	35351
1	142221541	7103	35457
1	142243619	7104	34927
1	142265768	7105	35086
1	142288116	7106	35616
1	142310590	7107	35457
1	142333262	7108	36305
1	142355300	7109	34238
1	142377599	7110	35934
1	142399867	7111	34874
1	142421915	7112	35404
1	142444541	7113	35828
1	142466779	7114	35033
1	142488865	7115	35563
1	142511488	7116	35457
1	142533526	7117	35298
1	142555937	7118	35033
1	142578128	7119	35775
1	142600602	7120	35828
1	142623006	7121	35139
1	142645343	7122	35192
1	142667807	7123	35669
1	142689778	7124	35086
1	142712505	7125	35722
1	142735007	7126	35828
1	142757476	7127	35934
1	142779691	7128	35245
1	142802268	7129	35722
1	142824895	7130	36305
1	142847598	7131	35828
1	142870024	7132	35404
1	142892559	7133	35828
1	142914750	7134	35139
1	142937409	7135	36146
1	142959931	7136	35563
1	142982273	7137	35351
1	143004653	7138	35457
1	143026908	7139	35669
1	143049385	7140	35245
1	143071513	7141	34927
1	143093670	7142	35616
1	143115831	7143	34768
1	143138021	7144	35298