version 2
run AimdCC-0-20100909-02:11:46-3352
attr configname AimdCC
attr datetime 20100909-02:11:46
attr experiment AimdCC
attr inifile D:/Developement/Oversim2/multic/simulations/omnetpp.ini
attr iterationvars $nhops=2
attr iterationvars2 "$nhops=2, $repetition=0"
attr measurement $nhops=2
attr network oversim.underlay.simpleunderlay.SimpleUnderlayNetwork
attr nhops 2
attr processid 3352
attr repetition 0
attr replication #0
attr resultdir results
attr runnumber 0
attr seedset 0

vector 1  SimpleUnderlayNetwork.globalObserver.globalStatistics  incoming_bytes  ETV
vector 2  SimpleUnderlayNetwork.globalObserver.globalStatistics  drops  ETV
vector 3  SimpleUnderlayNetwork.globalObserver.globalStatistics  delayed_acks  ETV
vector 4  SimpleUnderlayNetwork.globalObserver.globalStatistics  timetotimeouts  ETV
vector 5  SimpleUnderlayNetwork.globalObserver.globalStatistics  9rateOf1To0  ETV
vector 6  SimpleUnderlayNetwork.globalObserver.globalStatistics  max9RateOf1To0  ETV
vector 7  SimpleUnderlayNetwork.globalObserver.globalStatistics  9rateOf1To1  ETV
vector 8  SimpleUnderlayNetwork.globalObserver.globalStatistics  max9RateOf1To1  ETV
vector 9  SimpleUnderlayNetwork.globalObserver.globalStatistics  9rateOf1To2  ETV
vector 10  SimpleUnderlayNetwork.globalObserver.globalStatistics  max9RateOf1To2  ETV
vector 11  SimpleUnderlayNetwork.globalObserver.globalStatistics  9rateOf1To3  ETV
vector 12  SimpleUnderlayNetwork.globalObserver.globalStatistics  max9RateOf1To3  ETV
vector 13  SimpleUnderlayNetwork.globalObserver.globalStatistics  9rateOf1To4  ETV
vector 14  SimpleUnderlayNetwork.globalObserver.globalStatistics  max9RateOf1To4  ETV
vector 15  SimpleUnderlayNetwork.globalObserver.globalStatistics  9rateOf1To5  ETV
vector 16  SimpleUnderlayNetwork.globalObserver.globalStatistics  max9RateOf1To5  ETV
vector 17  SimpleUnderlayNetwork.globalObserver.globalStatistics  9rateOf1To6  ETV
vector 18  SimpleUnderlayNetwork.globalObserver.globalStatistics  max9RateOf1To6  ETV
vector 19  SimpleUnderlayNetwork.globalObserver.globalStatistics  9rateOf1To7  ETV
vector 20  SimpleUnderlayNetwork.globalObserver.globalStatistics  max9RateOf1To7  ETV
vector 21  SimpleUnderlayNetwork.globalObserver.globalStatistics  9rateOf1To8  ETV
vector 22  SimpleUnderlayNetwork.globalObserver.globalStatistics  max9RateOf1To8  ETV
vector 23  SimpleUnderlayNetwork.globalObserver.globalStatistics  9rateOf1To9  ETV
vector 24  SimpleUnderlayNetwork.globalObserver.globalStatistics  max9RateOf1To9  ETV
vector 25  SimpleUnderlayNetwork.globalObserver.globalStatistics  1rate  ETV
vector 26  SimpleUnderlayNetwork.globalObserver.globalStatistics  max2Rate  ETV
vector 27  SimpleUnderlayNetwork.globalObserver.globalStatistics  "GlobalNodeList: Number of nodes"  ETV
vector 28  SimpleUnderlayNetwork.globalObserver.globalStatistics  "GlobalNodeList: Number of bootstrapped malicious nodes"  ETV
1	180209467	6019	79818
1	180242009	6020	81143
1	180274620	6021	81991
1	180307091	6022	80454
1	180339438	6023	80825
1	180372310	6024	81408
1	180404459	6025	80083
1	180436943	6026	80348
1	180469833	6027	82309
1	180502126	6028	80507
1	180534895	6029	81726
1	180567523	6030	80984
1	180599612	6031	80030
1	180632057	6032	80454
1	180664103	6033	80030
1	180696576	6034	80984
1	180728959	6035	80189
1	180761418	6036	80772
1	180793725	6037	80454
1	180826258	6038	80242
1	180858481	6039	80772
1	180891063	6040	81196
1	180923349	6041	80719
1	180955528	6042	79818
1	180987820	6043	80613
1	181020216	6044	80348
1	181052549	6045	80507
1	181084554	6046	79288
1	181117003	6047	81885
1	181148974	6048	79288
1	181181474	6049	80189
1	181213859	6050	81673
1	181245952	6051	79182
1	181278166	6052	80136
1	181310120	6053	79500
1	181341895	6054	78758
1	181374283	6055	81832
1	181406278	6056	78970
1	181438513	6057	80189
1	181470924	6058	81196
1	181502917	6059	79500
1	181535261	6060	80242
1	181567577	6061	80030
1	181599694	6062	80295
1	181631727	6063	79765
1	181664023	6064	80083
1	181696254	6065	80189
1	181728201	6066	79447
1	181760395	6067	80083
1	181792303	6068	79129
1	181824240	6069	79765
1	181856341	6070	79818
1	181888017	6071	79076
1	181920653	6072	81143
1	181952792	6073	80295
1	181985054	6074	79871
1	182017295	6075	80560
1	182049405	6076	80401
1	182081861	6077	80878
1	182114186	6078	79765
1	182146268	6079	80189
1	182178367	6080	80083
1	182210588	6081	79977
1	182242918	6082	80666
1	182275276	6083	80136
1	182307571	6084	80772
1	182340196	6085	81832
1	182372679	6086	80242
1	182404761	6087	80242
1	182437202	6088	80560
1	182469289	6089	79447
1	182501317	6090	79500
1	182533783	6091	80878
1	182565759	6092	79871
1	182598161	6093	80984
1	182630740	6094	81090
1	182663290	6095	80772
1	182695286	6096	79712
1	182727565	6097	79924
1	182760004	6098	81355
1	182792259	6099	80083
1	182824623	6100	80507
1	182856905	6101	80719
1	182889552	6102	81355
1	182922093	6103	80189
1	182954300	6104	80613
1	182986776	6105	80136
1	183019211	6106	81249
1	183051771	6107	81461
1	183084481	6108	81779
1	183116859	6109	80507
1	183149289	6110	79765
1	183181917	6111	81726
1	183214263	6112	79977
1	183246604	6113	81037
1	183279399	6114	81514
1	183311636	6115	80136
1	183344277	6116	81037
1	183376722	6117	80348
1	183409009	6118	80719
1	183441343	6119	80719
1	183473806	6120	80825
1	183506119	6121	80136
1	183538568	6122	80984
1	183570721	6123	80507
1	183603093	6124	80931
1	183635522	6125	80295
1	183667949	6126	80348
1	183699969	6127	80401
1	183732084	6128	79076
1	183764377	6129	80507
1	183796810	6130	81673
1	183829462	6131	80454
1	183861982	6132	81196
1	183894492	6133	81037
1	183927032	6134	80984
1	183959458	6135	80454
1	183992225	6136	82203
1	184024159	6137	79553
1	184056103	6138	79341
1	184087733	6139	78599
1	184119482	6140	78705
1	184151352	6141	79659
1	184183189	6142	79076
1	184214659	6143	78281
1	184246327	6144	79712
1	184278109	6145	78705
1	184310057	6146	79553
1	184342001	6147	78758
1	184373950	6148	80030
1	184405890	6149	79818
1	184437654	6150	78599
1	184469419	6151	79341
1	184501324	6152	79606
1	184533063	6153	78705
1	184564807	6154	79394
1	184596477	6155	78705
1	184628192	6156	78705
1	184660179	6157	79606
1	184692018	6158	79765
1	184723655	6159	78122
1	184755328	6160	79341
1	184786985	6161	77645
1	184818941	6162	80560
1	184850818	6163	79023
1	184883051	6164	80242
1	184914953	6165	79924
1	184946805	6166	78599
1	184978708	6167	79447
1	185010351	6168	79129
1	185042193	6169	78705
1	185074017	6170	79341
1	185105921	6171	79447
1	185137935	6172	79818
1	185169498	6173	78493
1	185201486	6174	79924
1	185233259	6175	78970
1	185264807	6176	78334
1	185296423	6177	79288
1	185328160	6178	79129
1	185360099	6179	78016
1	185391845	6180	79871
1	185423994	6181	80454
1	185456327	6182	80083
1	185488467	6183	79924
1	185520848	6184	80454
1	185552585	6185	79182
1	185584495	6186	79606
1	185616850	6187	80984
1	185648850	6188	78917
1	185681113	6189	80719
1	185713050	6190	79765
1	185744990	6191	78546
1	185776951	6192	79606
1	185809202	6193	81143
1	185840939	6194	78334
1	185873085	6195	80560
1	185905209	6196	79659
1	185937231	6197	80030
1	185969025	6198	79076
1	186000761	6199	78599
1	186032716	6200	79500
1	186064926	6201	80401
1	186096687	6202	79023
1	186128591	6203	79235
1	186160788	6204	79818
1	186192641	6205	80189
1	186224795	6206	79818
1	186256822	6207	79447
1	186289148	6208	80772
1	186321206	6209	79235
1	186353145	6210	79871
1	186384999	6211	79606
1	186416943	6212	78864
1	186449000	6213	80242
1	186480799	6214	78917
1	186512661	6215	79447
1	186544738	6216	80136
1	186576718	6217	79235
1	186608998	6218	81037
1	186640934	6219	78652
1	186672970	6220	80083
1	186705206	6221	80507
1	186737305	6222	79924
1	186769424	6223	79765
1	186801539	6224	80454
1	186833484	6225	79129
1	186865557	6226	79341
1	186897526	6227	79712
1	186929835	6228	80772
1	186962001	6229	80030
1	186994338	6230	80189
1	187026401	6231	79977
1	187058395	6232	79871
1	187090582	6233	79394
1	187122891	6234	81090
1	187154835	6235	79076
1	187187083	6236	80348
1	187219929	6237	81991
1	187251933	6238	79235
1	187284397	6239	81514
1	187316567	6240	79977
1	187349114	6241	80878
1	187381641	6242	81408
1	187413799	6243	79341
1	187446068	6244	80666
1	187478333	6245	79712
1	187510724	6246	81196
1	187542755	6247	79659
1	187575425	6248	80825
1	187607950	6249	80931
1	187640363	6250	81620
1	187673063	6251	80825
1	187705552	6252	80613
1	187738358	6253	81991
1	187770995	6254	80984
1	187803689	6255	81355
1	187835974	6256	80931
1	187868455	6257	81143
1	187900757	6258	79606
1	187933389	6259	81620
1	187965604	6260	79924
1	187998185	6261	81461
1	188030740	6262	81408
1	188063096	6263	79500
1	188095533	6264	81196
1	188127681	6265	79871
1	188160297	6266	81832
1	188192727	6267	80719
1	188225428	6268	80931
1	188258333	6269	82468
1	188290718	6270	79977
1	188323228	6271	80878
1	188355650	6272	80348
1	188388048	6273	82044
1	188420501	6274	79871
1	188452759	6275	80560
1	188485158	6276	80560
1	188517770	6277	81779
1	188550130	6278	79924
1	188582811	6279	81196
1	188615374	6280	81620
1	188647956	6281	80666
1	188680266	6282	80560
1	188712445	6283	80083
1	188744606	6284	79341
1	188777187	6285	81620
1	188809739	6286	81143
1	188842266	6287	80984
1	188874447	6288	79924
1	188906466	6289	80348
1	188938834	6290	80719
1	188970899	6291	79129
1	189002947	6292	79977
1	189035026	6293	80348
1	189067142	6294	79712
1	189099378	6295	80348
1	189131492	6296	79924
1	189163246	6297	78546
1	189195350	6298	79606
1	189227454	6299	80613
1	189259581	6300	80242
1	189291799	6301	79500
1	189323837	6302	80295
1	189356062	6303	80507
1	189388131	6304	79447
1	189420257	6305	80189
1	189452429	6306	79553
1	189484660	6307	80454
1	189516456	6308	78387
1	189548715	6309	79977
1	189580497	6310	80454
1	189612356	6311	78705
1	189643986	6312	79076
1	189675827	6313	78758
1	189707902	6314	80666
1	189739612	6315	78228
1	189771883	6316	80507
1	189803440	6317	79288
1	189835242	6318	78016
1	189867432	6319	80719
1	189899281	6320	79765
1	189931151	6321	79023
1	189963095	6322	78970
1	189995041	6323	80560
1	190026890	6324	78387
1	190059164	6325	80931
1	190091308	6326	80136
1	190123156	6327	78599
1	190155430	6328	79977
1	190187138	6329	79553
1	190219295	6330	80348
1	190251200	6331	79500
1	190283148	6332	79341
1	190315106	6333	79394
1	190347274	6334	80454
1	190378839	6335	78334
1	190411117	6336	80825
1	190443211	6337	78652
1	190475371	6338	81037
1	190507036	6339	78387
1	190539133	6340	79871
1	190571429	6341	80454
1	190602952	6342	78281
1	190635028	6343	80454
1	190666912	6344	79447
1	190698933	6345	78917
1	190730637	6346	79288
1	190762868	6347	79765
1	190794620	6348	79765
1	190826640	6349	79553
1	190858542	6350	78652
1	190890545	6351	79712
1	190922174	6352	79182
1	190954332	6353	79712
1	190986241	6354	80401
1	191018370	6355	79606
1	191050261	6356	78917
1	191082464	6357	80401
1	191114259	6358	79288
1	191146477	6359	80189
1	191178260	6360	78387
1	191210571	6361	81408
1	191242431	6362	78387
1	191274521	6363	80984
1	191306615	6364	79553
1	191338851	6365	80030
1	191370954	6366	80348
1	191402923	6367	79394
1	191435173	6368	80454
1	191467287	6369	80083
1	191499107	6370	78069
1	191531412	6371	81249
1	191563726	6372	79924
1	191596135	6373	81408
1	191628118	6374	79235
1	191660486	6375	80242
1	191692713	6376	80613
1	191724650	6377	78811
1	191756711	6378	80931
1	191788937	6379	79341
1	191820999	6380	80560
1	191853181	6381	79818
1	191885443	6382	80507
1	191917159	6383	78493
1	191949765	6384	80984
1	191981516	6385	80030
1	192013523	6386	79447
1	192045847	6387	80136
1	192077686	6388	79765
1	192109728	6389	78652
1	192141833	6390	80719
1	192173780	6391	78864
1	192205572	6392	79076
1	192237668	6393	80136
1	192269703	6394	79977
1	192301775	6395	79818
1	192333827	6396	80454
1	192365662	6397	77645
1	192397500	6398	80348
1	192429704	6399	80666
1	192461740	6400	79394
1	192494119	6401	80507
1	192526231	6402	79553
1	192558725	6403	80666
1	192590851	6404	80613
1	192623124	6405	79606
1	192655547	6406	81143
1	192687640	6407	80401
1	192719843	6408	79182
1	192751903	6409	80136
1	192783930	6410	79977
1	192816028	6411	79977
1	192847905	6412	79659
1	192879867	6413	79341
1	192911867	6414	79659
1	192944419	6415	81090
1	192976599	6416	80030
1	193008546	6417	79235
1	193040558	6418	79765
1	193072868	6419	80931
1	193105044	6420	79341
1	193137242	6421	80613
1	193169891	6422	81249
1	193201998	6423	79924
1	193233999	6424	79500
1	193266513	6425	81143
1	193298878	6426	80401
1	193331347	6427	80984
1	193363815	6428	80772
1	193396176	6429	80772
1	193428404	6430	80083
1	193461041	6431	81037
1	193493516	6432	80560
1	193525800	6433	80719
1	193557891	6434	79659
1	193590429	6435	80454
1	193622629	6436	80189
1	193655168	6437	81779
1	193687443	6438	79977
1	193719931	6439	81037
1	193752661	6440	81408
1	193785150	6441	80878
1	193817746	6442	81249
1	193850177	6443	81143
1	193882690	6444	81249
1	193914815	6445	78387
1	193946800	6446	80719
1	193979457	6447	81143
1	194011712	6448	80189
1	194044186	6449	81143
1	194076382	6450	80242
1	194108681	6451	80507
1	194141065	6452	80719
1	194173508	6453	80348
1	194205810	6454	79447
1	194238472	6455	81567
1	194270635	6456	80719
1	194303040	6457	80613
1	194335199	6458	80666
1	194367432	6459	79500
1	194399380	6460	79712
1	194431950	6461	81090
1	194464386	6462	79977
1	194496602	6463	80719
1	194529127	6464	81726
1	194561247	6465	78705
1	194593313	6466	80295
1	194625511	6467	80613
1	194657934	6468	79924
1	194689975	6469	79765
1	194722346	6470	81461
1	194754364	6471	79341
1	194786196	6472	78599
1	194818277	6473	80560
1	194850683	6474	80348
1	194882544	6475	78864
1	194914642	6476	80189
1	194946731	6477	80083
1	194978854	6478	79871
1	195011010	6479	79500
1	195043299	6480	81196
1	195075317	6481	79924
1	195107267	6482	79076
1	195139512	6483	80878
1	195171154	6484	78016
1	195203491	6485	80825
1	195235709	6486	80242
1	195267988	6487	80719
1	195299733	6488	78811
1	195332047	6489	80295
1	195364130	6490	79712
1	195396394	6491	80825
1	195428649	6492	79712
1	195460810	6493	80878
1	195492901	6494	78864
1	195525400	6495	81249
1	195557413	6496	79977
1	195589661	6497	80666
1	195622123	6498	80189
1	195654406	6499	80454
1	195686385	6500	79394
1	195718496	6501	79818
1	195751031	6502	81726
1	195782876	6503	79129
1	195814740	6504	79553
1	195846906	6505	79447
1	195879028	6506	80030
1	195911270	6507	80772
1	195943553	6508	79924
1	195975482	6509	79500
1	196007173	6510	79129
1	196038986	6511	78811
1	196070596	6512	78599
1	196102413	6513	79235
1	196134288	6514	80083
1	196165971	6515	78334
1	196197993	6516	80030
1	196229633	6517	78493
1	196261204	6518	79023
1	196293274	6519	78970
1	196324837	6520	78652
1	196356796	6521	79924
1	196388580	6522	78811
1	196420242	6523	79129
1	196452391	6524	80083
1	196484353	6525	79765
1	196516340	6526	80189
1	196548006	6527	78016
1	196580362	6528	80454
1	196611972	6529	78334
1	196643975	6530	79712
1	196676005	6531	80454
1	196707899	6532	79076
1	196739909	6533	79765
1	196771870	6534	79765
1	196803482	6535	78864
1	196835589	6536	79500
1	196867321	6537	78970
1	196899259	6538	79182
1	196931112	6539	79818
1	196962882	6540	78705
1	196995131	6541	79712
1	197026791	6542	79553
1	197058626	6543	79394
1	197090324	6544	78387
1	197122018	6545	78705
1	197153975	6546	79235
1	197185975	6547	80295
1	197217815	6548	79076
1	197249281	6549	78016
1	197281061	6550	79712
1	197312974	6551	78652
1	197344797	6552	79818
1	197376671	6553	78970
1	197408397	6554	78758
1	197440340	6555	80772
1	197471883	6556	77592
1	197503611	6557	78811
1	197535003	6558	78387
1	197566501	6559	78493
1	197598008	6560	78440
1	197629859	6561	79341
1	197661509	6562	78652
1	197693196	6563	78864
1	197724941	6564	78758
1	197756764	6565	78758
1	197788304	6566	79235
1	197819860	6567	78387
1	197851760	6568	80030
1	197883351	6569	77857
1	197915256	6570	79447
1	197946774	6571	78122
1	197979181	6572	81196
1	198010871	6573	78546
1	198042577	6574	79129
1	198074452	6575	79712
1	198106440	6576	79182
1	198138375	6577	79871
1	198169874	6578	77698
1	198201670	6579	79182
1	198233697	6580	80613
1	198265417	6581	78228
1	198296826	6582	78228
1	198328250	6583	77539
1	198359750	6584	78811
1	198391136	6585	78493
1	198422440	6586	77221
1	198454371	6587	80189
1	198485802	6588	78387
1	198516940	6589	77327
1	198548182	6590	77062
1	198579422	6591	77804
1	198610631	6592	78016
1	198642087	6593	77751
1	198673070	6594	76744
1	198704327	6595	78016
1	198735666	6596	78599
1	198767154	6597	78440
1	198798083	6598	76267
1	198829483	6599	78493
1	198860979	6600	78493
1	198892291	6601	78281
1	198923654	6602	77751
1	198955318	6603	78811
1	198986407	6604	77698
1	199017906	6605	77963
1	199049130	6606	77115
1	199080822	6607	80454
1	199111741	6608	77062
1	199142805	6609	77274
1	199174277	6610	77486
1	199205427	6611	77327
1	199236958	6612	78970
1	199268232	6613	77539
1	199299281	6614	77009
1	199330579	6615	78016
1	199361705	6616	77804
1	199393028	6617	77380
1	199424679	6618	78970
1	199456045	6619	78440
1	199487499	6620	77327
1	199518674	6621	79023
1	199549963	6622	77115
1	199581507	6623	79182
1	199612652	6624	76373
1	199644356	6625	78970
1	199675658	6626	78334
1	199706838	6627	78016
1	199738401	6628	78652
1	199769201	6629	76744
1	199800568	6630	78440
1	199831971	6631	77274
1	199863223	6632	77539
1	199894630	6633	78970
1	199925988	6634	78016
1	199957186	6635	76903
1	199988377	6636	78599
1	200019521	6637	77274
1	200051009	6638	78493
1	200082288	6639	77857
1	200113319	6640	77274
1	200144996	6641	77804
1	200176634	6642	80083
1	200208231	6643	78387
1	200239874	6644	79023
1	200271091	6645	77062
1	200302443	6646	78758
1	200333934	6647	78228
1	200365077	6648	76691
1	200396778	6649	79712
1	200427940	6650	77327
1	200459353	6651	78652
1	200490689	6652	77645
1	200521961	6653	78493
1	200553247	6654	77433
1	200584468	6655	78228
1	200615704	6656	77274
1	200647047	6657	78122
1	200678234	6658	77592
1	200709483	6659	77221
1	200740898	6660	79129
1	200771726	6661	76267
1	200803096	6662	78334
1	200834705	6663	78228
1	200865850	6664	77963
1	200897454	6665	78387
1	200929288	6666	79394
1	200960594	6667	77380
1	200992089	6668	79341
1	201023534	6669	77380
1	201054902	6670	78599
1	201086231	6671	77698
1	201117805	6672	78281
1	201149425	6673	78705
1	201181020	6674	79129
1	201212186	6675	77221
1	201243447	6676	77910
1	201275108	6677	78228
1	201306762	6678	79235
1	201338565	6679	79447
1	201370176	6680	78599
1	201401769	6681	78970
1	201432915	6682	77539
1	201464452	6683	78016
1	201496430	6684	80348
1	201527877	6685	78122
1	201559304	6686	78069
1	201591005	6687	79129
1	201623133	6688	79659
1	201654633	6689	78334
1	201685954	6690	78387
1	201717390	6691	78387
1	201748998	6692	77910
1	201780439	6693	78281
1	201812551	6694	80719
1	201844288	6695	78122
1	201875792	6696	78917
1	201907501	6697	78652
1	201939336	6698	79553
1	201971013	6699	78864
1	202002758	6700	79341
1	202034227	6701	77168
1	202066195	6702	79977
1	202097599	6703	77857
1	202129347	6704	79924
1	202161169	6705	78175
1	202192936	6706	79182
1	202224578	6707	78652
1	202256593	6708	80189
1	202288534	6709	78811
1	202320900	6710	81196
1	202352847	6711	80030
1	202384537	6712	78281
1	202416557	6713	79500
1	202448438	6714	79818
1	202480561	6715	79977
1	202512394	6716	79288
1	202544583	6717	79871
1	202576497	6718	79765
1	202608464	6719	79023
1	202640484	6720	79500
1	202672388	6721	80136
1	202704195	6722	79288
1	202735973	6723	79394
1	202767771	6724	78281
1	202799376	6725	78917
1	202831377	6726	79818
1	202862759	6727	77433
1	202894803	6728	79606
1	202926913	6729	79924
1	202959005	6730	80189
1	202990948	6731	79394
1	203022924	6732	79924
1	203054724	6733	78758
1	203086798	6734	80189
1	203118591	6735	79235
1	203149976	6736	78175
1	203182105	6737	79553
1	203213680	6738	78864
1	203245205	6739	78440
1	203277055	6740	79765
1	203308615	6741	77963
1	203340177	6742	78652
1	203371790	6743	78440
1	203403407	6744	78917
1	203434904	6745	78440
1	203466595	6746	79076
1	203498226	6747	78334
1	203529970	6748	79288
1	203561480	6749	78705
1	203593198	6750	78705
1	203624461	6751	77062
1	203656671	6752	80931
1	203688559	6753	79606
1	203719921	6754	77486
1	203751641	6755	79023
1	203783421	6756	79871
1	203815164	6757	77751
1	203846836	6758	78970
1	203878177	6759	78493
1	203909895	6760	78546
1	203941649	6761	78917
1	203973120	6762	78652
1	204004265	6763	77274
1	204035714	6764	78811
1	204067297	6765	78175
1	204098833	6766	78440
1	204130396	6767	78334
1	204161834	6768	79076
1	204193276	6769	77327
1	204225005	6770	80136
1	204256595	6771	78228
1	204288108	6772	78652
1	204319537	6773	77592
1	204350926	6774	77486
1	204382341	6775	78228
1	204413526	6776	78758
1	204445195	6777	78387
1	204476496	6778	77804
1	204508151	6779	78387
1	204539848	6780	79076
1	204571309	6781	78122
1	204603101	6782	79977
1	204634403	6783	77645
1	204665934	6784	78758
1	204697374	6785	77963
1	204728895	6786	78228
1	204760314	6787	77592
1	204791748	6788	78334
1	204823488	6789	79712
1	204854723	6790	77592
1	204886666	6791	79235
1	204918212	6792	78599
1	204949764	6793	78811
1	204981188	6794	78228
1	205013083	6795	79129
1	205044468	6796	78705
1	205076063	6797	78440
1	205107627	6798	78069
1	205138927	6799	77857
1	205169893	6800	77274
1	205201419	6801	78387
1	205232748	6802	78069
1	205264375	6803	78440
1	205295703	6804	78281
1	205326975	6805	77698
1	205358682	6806	78864
1	205390316	6807	79341
1	205421254	6808	76320
1	205453004	6809	79924
1	205484410	6810	77115
1	205516135	6811	79606
1	205547445	6812	77857
1	205579117	6813	78440
1	205610488	6814	78387
1	205642017	6815	78493
1	205673446	6816	78228
1	205705163	6817	79394
1	205736811	6818	78016
1	205768416	6819	79023
1	205800205	6820	79394
1	205831463	6821	77062
1	205862955	6822	79023
1	205894738	6823	78811
1	205926321	6824	77751
1	205958086	6825	79818
1	205990027	6826	79659
1	206021811	6827	79076
1	206053577	6828	79659
1	206085101	6829	78652
1	206116718	6830	78758
1	206148236	6831	78122
1	206179741	6832	78069
1	206211268	6833	79235
1	206242575	6834	77168
1	206274176	6835	78599
1	206305480	6836	78652
1	206337042	6837	77751
1	206368485	6838	78440
1	206399865	6839	77645
1	206431328	6840	78122
1	206462680	6841	78493
1	206494036	6842	77910
1	206525541	6843	79076
1	206556907	6844	77486
1	206588283	6845	78228
1	206619800	6846	78599
1	206650937	6847	77433
1	206682507	6848	78175
1	206713998	6849	78652
1	206745419	6850	78652
1	206776828	6851	77645
1	206808491	6852	79129
1	206840069	6853	78546
1	206871457	6854	77963
1	206902940	6855	78334
1	206934375	6856	78970
1	206965609	6857	76850
1	206997180	6858	79023
1	207029113	6859	79765
1	207060618	6860	78440
1	207092010	6861	77274
1	207123184	6862	78175
1	207154767	6863	78281
1	207186380	6864	78970
1	207217436	6865	77221
1	207248988	6866	78599
1	207280742	6867	79235
1	207312279	6868	78546
1	207343678	6869	77751
1	207374801	6870	77645
1	207406223	6871	78228
1	207437716	6872	78122
1	207468976	6873	77698
1	207500101	6874	77698
1	207531819	6875	79076
1	207563177	6876	78122
1	207594521	6877	78069
1	207626200	6878	78811
1	207657916	6879	79129
1	207689298	6880	78175
1	207720663	6881	77698
1	207752023	6882	78334
1	207783623	6883	78281
1	207814875	6884	77592
1	207846903	6885	80613
1	207878388	6886	78440
1	207910096	6887	77804
1	207941942	6888	80401
1	207973645	6889	78387
1	208005195	6890	78069
1	208037033	6891	80189
1	208068489	6892	77857
1	208100172	6893	79023
1	208131445	6894	78122
1	208163216	6895	78599
1	208194816	6896	78493
1	208226992	6897	80030
1	208258854	6898	79447
1	208290795	6899	80136
1	208322324	6900	78228
1	208354239	6901	79447
1	208386061	6902	78811
1	208417686	6903	78970
1	208449423	6904	78546
1	208480834	6905	78864
1	208512644	6906	78811
1	208544036	6907	78917
1	208575509	6908	77009
1	208607098	6909	79129
1	208638726	6910	78652
1	208670244	6911	78387
1	208701821	6912	79182
1	208732992	6913	76585
1	208764807	6914	80030
1	208796402	6915	78281
1	208827740	6916	78175
1	208859279	6917	78281
1	208890972	6918	80189
1	208922270	6919	76585
1	208953839	6920	79288
1	208985580	6921	78228
1	209017209	6922	78811
1	209048429	6923	77592
1	209079870	6924	78546
1	209111314	6925	78758
1	209142677	6926	77592
1	209174107	6927	78440
1	209205625	6928	79288
1	209237173	6929	76691
1	209268755	6930	79182
1	209300089	6931	77910
1	209331712	6932	78970
1	209363145	6933	78122
1	209394371	6934	78069
1	209426010	6935	79076
1	209457445	6936	78334
1	209488544	6937	77433
1	209520113	6938	78387
1	209551282	6939	77433
1	209582753	6940	78281
1	209613717	6941	76214
1	209644987	6942	77539
1	209676281	6943	78705
1	209707802	6944	78546
1	209739402	6945	78864
1	209771070	6946	78069
1	209802541	6947	78493
1	209833959	6948	78440
1	209865104	6949	77592
1	209896717	6950	78228
1	209928386	6951	79235
1	209960128	6952	78864
1	209991596	6953	78705
1	210022768	6954	77751
1	210054158	6955	77645
1	210085626	6956	78546
1	210116940	6957	77963
1	210148440	6958	77910
1	210179772	6959	77698
1	210211099	6960	78440
1	210242462	6961	78599
1	210274052	6962	78652
1	210305474	6963	78811
1	210336862	6964	77115
1	210368371	6965	78387
1	210399876	6966	77910
1	210431175	6967	79076
1	210462760	6968	77486
1	210494402	6969	80136
1	210525683	6970	77168
1	210556940	6971	77592
1	210588295	6972	78122
1	210619408	6973	77645
1	210650703	6974	77857
1	210682225	6975	78175
1	210713704	6976	78917
1	210745203	6977	78122
1	210776661	6978	77857
1	210808071	6979	78864
1	210839688	6980	78599
1	210870927	6981	76744
1	210902488	6982	79447
1	210933994	6983	78440
1	210965672	6984	78917
1	210997285	6985	78440
1	211028955	6986	78917
1	211060345	6987	78546
1	211092078	6988	78546
1	211123635	6989	79076
1	211155114	6990	77751
1	211186892	6991	79394
1	211218334	6992	78493
1	211250363	6993	79341
1	211281743	6994	78281
1	211313221	6995	78387
1	211344914	6996	79235
1	211376583	6997	78281
1	211408543	6998	79818
1	211440299	6999	79341
1	211471817	7000	78122
1	211503446	7001	78652
1	211535433	7002	79553
1	211567208	7003	79606
1	211599069	7004	79076
1	211630884	7005	78864
1	211662762	7006	79871
1	211694752	7007	79182
1	211726619	7008	79606
1	211758586	7009	79606
1	211790326	7010	78281
1	211822343	7011	80348
1	211854533	7012	80083
1	211886513	7013	79606
1	211918264	7014	80083
1	211949390	7015	76373
1	211981043	7016	78864
1	212012715	7017	78440
1	212044357	7018	79500
1	212076063	7019	78599
1	212107833	7020	78970
1	212139541	7021	79341
1	212171152	7022	78175
1	212202710	7023	79871
1	212234441	7024	77539
1	212266208	7025	79447
1	212297808	7026	78758
1	212329621	7027	79129
1	212361106	7028	78440
1	212392838	7029	79076
1	212424565	7030	78705
1	212455988	7031	78652
1	212487519	7032	78546
1	212519100	7033	78122
1	212550683	7034	78599
1	212582186	7035	78281
1	212614072	7036	79871
1	212645859	7037	77698
1	212677737	7038	80825
1	212709409	7039	78493
1	212741134	7040	79076
1	212773017	7041	79076
1	212804573	7042	78917
1	212836066	7043	78440
1	212867711	7044	78599
1	212899347	7045	78652
1	212931379	7046	79447
1	212963096	7047	79288
1	212994922	7048	78758
1	213026593	7049	79659
1	213058004	7050	77910
1	213089596	7051	78493
1	213121212	7052	79182
1	213152851	7053	78175
1	213184104	7054	77592
1	213215751	7055	79129
1	213247424	7056	78493
1	213279049	7057	78387
1	213311069	7058	80666
1	213342748	7059	78652
1	213374218	7060	77274
1	213406135	7061	80348
1	213437805	7062	78493
1	213469496	7063	79023
1	213501022	7064	79076
1	213532642	7065	78334
1	213564396	7066	78440
1	213595983	7067	78864
1	213627246	7068	78493
1	213658840	7069	78387
1	213690505	7070	78917
1	213721873	7071	78016
1	213753511	7072	79235
1	213785127	7073	78016
1	213816858	7074	78705
1	213848459	7075	78917
1	213879990	7076	78334
1	213911734	7077	79235
1	213943172	7078	77698
1	213974489	7079	78705
1	214005988	7080	78281
1	214037753	7081	79341
1	214069581	7082	79076
1	214101218	7083	77804
1	214132818	7084	79500
1	214164525	7085	79288
1	214196538	7086	79447
1	214228072	7087	78069
1	214259653	7088	77910
1	214290711	7089	77645
1	214322182	7090	78705
1	214353617	7091	78016
1	214385235	7092	79023
1	214416666	7093	78069
1	214448477	7094	78864
1	214480199	7095	79553
1	214511841	7096	77698
1	214543501	7097	79129
1	214575203	7098	79765
1	214606805	7099	77963
1	214638268	7100	78705
1	214669697	7101	77857
1	214701410	7102	79447
1	214732802	7103	77433
1	214764490	7104	79977
1	214796263	7105	78546
1	214827310	7106	76691
1	214858737	7107	78864
1	214890351	7108	77910
1	214922150	7109	79924
1	214953341	7110	77327
1	214985003	7111	79341
1	215016581	7112	77963
1	215048263	7113	79235
1	215079745	7114	78440
1	215111377	7115	79076
1	215142736	7116	77645
1	215174308	7117	79447
1	215205760	7118	77115
1	215237348	7119	78652
1	215268863	7120	78069
1	215300465	7121	79076
1	215332598	7122	80189
1	215364224	7123	78334
1	215395769	7124	78599
1	215427756	7125	80348
1	215459357	7126	78334
1	215491311	7127	79288
1	215522895	7128	78811
1	215554692	7129	79129
1	215586458	7130	79129
1	215618301	7131	79394
1	215650215	7132	79500
1	215681835	7133	78599
1	215713506	7134	78387
1	215745311	7135	79341
1	215777149	7136	79129
1	215808851	7137	79129
1	215840443	7138	79341
1	215872173	7139	78122
1	215904003	7140	79818
1	215935590	7141	78546
1	215967111	7142	78652
1	215999063	7143	79553
1	216030776	7144	78228
1	216062908	7145	80507