version 2
run BasicCC-2-20100909-00:12:31-3416
attr configname BasicCC
attr datetime 20100909-00:12:31
attr experiment BasicCC
attr inifile D:/Developement/Oversim2/multic/simulations/omnetpp.ini
attr iterationvars $nhops=4
attr iterationvars2 "$nhops=4, $repetition=0"
attr measurement $nhops=4
attr network oversim.underlay.simpleunderlay.SimpleUnderlayNetwork
attr nhops 4
attr processid 3416
attr repetition 0
attr replication #0
attr resultdir results
attr runnumber 2
attr seedset 2

vector 1  SimpleUnderlayNetwork.globalObserver.globalStatistics  incoming_bytes  ETV
vector 2  SimpleUnderlayNetwork.globalObserver.globalStatistics  drops  ETV
vector 3  SimpleUnderlayNetwork.globalObserver.globalStatistics  delayed_acks  ETV
vector 4  SimpleUnderlayNetwork.globalObserver.globalStatistics  "GlobalNodeList: Number of nodes"  ETV
vector 5  SimpleUnderlayNetwork.globalObserver.globalStatistics  "GlobalNodeList: Number of bootstrapped malicious nodes"  ETV
1	96871	19	53
1	207485	20	742
1	318878	21	1484
1	430299	22	1484
1	541695	23	689
1	653065	24	689
1	764499	25	689
1	875980	26	742
1	987429	27	477
1	1098915	28	371
1	1210301	29	954
1	1321732	30	1272
1	1433150	31	901
1	1544518	32	848
1	1656005	33	424
1	1767444	34	901
1	1878865	35	477
1	1990327	36	530
1	2101899	37	1166
1	2213183	38	954
1	2324624	39	742
1	2436005	40	477
1	2547470	41	689
1	2658929	42	795
1	2770366	43	848
1	2881760	44	689
1	2993140	45	795
1	3104550	46	689
1	3216019	47	742
1	3327453	48	1113
1	3438845	49	530
1	3550294	50	477
1	3661707	51	901
1	3773203	52	795
1	3884665	53	265
1	3995970	54	742
1	4107514	55	583
1	4218963	56	530
1	4330269	57	848
1	4441726	58	1007
1	4553165	59	848
1	4664597	60	795
1	4776047	61	477
1	4887431	62	636
1	4998966	63	371
1	5110475	64	689
1	5221805	65	742
1	5333182	66	742
1	5444753	67	424
1	5556041	68	636
1	5667394	69	742
1	5778920	70	530
1	5890266	71	477
1	6001766	72	848
1	6113302	73	1060
1	6224639	74	742
1	6336066	75	742
1	6447576	76	530
1	6558991	77	1219
1	6670448	78	1484
1	6781702	79	742
1	6893279	80	318
1	7004553	81	1113
1	7116176	82	742
1	7227565	83	742
1	7338989	84	424
1	7450492	85	477
1	7561762	86	954
1	7673258	87	689
1	7784659	88	689
1	7896057	89	1007
1	8007565	90	583
1	8119029	91	636
1	8230498	92	1007
1	8341853	93	689
1	8453347	94	1060
1	8564713	95	689
1	8676077	96	795
1	8787512	97	795
1	8899020	98	848
1	9010360	99	742
1	9121956	100	583
1	9233230	101	1060
1	9344799	102	795
1	9456013	103	848
1	9567659	104	689
1	9679040	105	583
1	9790486	106	583
1	9901929	107	477
1	10013388	108	795
1	10124789	109	689
1	10236085	110	901
1	10347576	111	583
1	10459046	112	795
1	10570466	113	742
1	10681926	114	636
1	10793364	115	371
1	10904782	116	1007
1	11016163	117	954
1	11127567	118	795
1	11239053	119	742
1	11350379	120	1113
1	11461901	121	424
1	11573405	122	689
1	11684801	123	1166
1	11796310	124	954
1	11907697	125	848
1	12019150	126	742
1	12130530	127	583
1	12242026	128	477
1	12353329	129	1060
1	12464836	130	636
1	12576252	131	689
1	12687603	132	636
1	12799286	133	583
1	12910522	134	742
1	13022007	135	636
1	13133353	136	848
1	13244827	137	477
1	13356200	138	689
1	13467775	139	954
1	13579084	140	636
1	13690632	141	636
1	13801821	142	1060
1	13913379	143	530
1	14024737	144	477
1	14136285	145	954
1	14247784	146	1007
1	14359072	147	1060
1	14470528	148	583
1	14581996	149	636
1	14693433	150	742
1	14804834	151	1060
1	14916133	152	583
1	15027586	153	1060
1	15139199	154	795
1	15250547	155	477
1	15362110	156	1166
1	15473531	157	1325
1	15584908	158	424
1	15696365	159	742
1	15807712	160	583
1	15919048	161	583
1	16030594	162	636
1	16141979	163	1272
1	16253464	164	424
1	16364888	165	636
1	16476304	166	689
1	16587784	167	1007
1	16699177	168	954
1	16810749	169	954
1	16921959	170	848
1	17033507	171	371
1	17144916	172	848
1	17256271	173	636
1	17367868	174	901
1	17479289	175	1113
1	17590574	176	795
1	17702035	177	1325
1	17813510	178	848
1	17925056	179	795
1	18036447	180	795
1	18147703	181	901
1	18259168	182	901
1	18370656	183	742
1	18482103	184	583
1	18593520	185	1113
1	18705006	186	1060
1	18816320	187	583
1	18927888	188	795
1	19039299	189	795
1	19150776	190	689
1	19262080	191	954
1	19373530	192	848
1	19485018	193	795
1	19596425	194	636
1	19707947	195	742
1	19819286	196	954
1	19930688	197	795
1	20042169	198	795
1	20153587	199	742
1	20264960	200	477
1	20376533	201	901
1	20487887	202	848
1	20599319	203	795
1	20710731	204	636
1	20822191	205	848
1	20933723	206	742
1	21045064	207	954
1	21156421	208	795
1	21268050	209	636
1	21379348	210	636
1	21490655	211	848
1	21602148	212	1007
1	21713598	213	848
1	21825027	214	742
1	21936626	215	1113
1	22048053	216	795
1	22159293	217	636
1	22270713	218	424
1	22382196	219	424
1	22493659	220	848
1	22605131	221	583
1	22716582	222	742
1	22827841	223	636
1	22939323	224	530
1	23050824	225	795
1	23162273	226	583
1	23273691	227	530
1	23385116	228	901
1	23496466	229	742
1	23607984	230	689
1	23719424	231	583
1	23830725	232	901
1	23942318	233	848
1	24053512	234	689
1	24165234	235	1007
1	24276605	236	1007
1	24387931	237	636
1	24499404	238	530
1	24610874	239	477
1	24722243	240	689
1	24833627	241	795
1	24945090	242	848
1	25056491	243	689
1	25168004	244	689
1	25279443	245	636
1	25390855	246	795
1	25502227	247	848
1	25613656	248	742
1	25725064	249	689
1	25836480	250	689
1	25947963	251	848
1	26059332	252	954
1	26170833	253	1166
1	26282345	254	636
1	26393681	255	1007
1	26505104	256	742
1	26616543	257	689
1	26727934	258	636
1	26839454	259	848
1	26950811	260	1007
1	27062323	261	795
1	27173844	262	636
1	27285250	263	848
1	27396477	264	689
1	27508005	265	1060
1	27619552	266	795
1	27730883	267	689
1	27842399	268	795
1	27953837	269	901
1	28065072	270	583
1	28176664	271	954
1	28288138	272	742
1	28399603	273	901
1	28510924	274	583
1	28622339	275	901
1	28733786	276	636
1	28845293	277	424
1	28956651	278	1113
1	29068024	279	424
1	29179443	280	848
1	29290953	281	1007
1	29402356	282	530
1	29513773	283	689
1	29625266	284	848
1	29736596	285	848
1	29848160	286	583
1	29959543	287	689
1	30071005	288	530
1	30182382	289	689
1	30293825	290	477
1	30405284	291	636
1	30516614	292	477
1	30628122	293	795
1	30739585	294	1007
1	30850838	295	1007
1	30962447	296	689
1	31073798	297	1007
1	31185306	298	742
1	31296690	299	371
1	31408194	300	954
1	31519631	301	530
1	31631082	302	742
1	31742329	303	477
1	31853719	304	795
1	31965239	305	742
1	32076643	306	1060
1	32188088	307	954
1	32299501	308	424
1	32410963	309	848
1	32522473	310	901
1	32633881	311	583
1	32745331	312	742
1	32856824	313	689
1	32968099	314	848
1	33079540	315	689
1	33191040	316	795
1	33302354	317	901
1	33413845	318	848
1	33525291	319	424
1	33636798	320	742
1	33748198	321	1272
1	33859639	322	689
1	33971150	323	636
1	34082529	324	477
1	34193932	325	795
1	34305500	326	477
1	34416687	327	795
1	34528151	328	636
1	34639535	329	636
1	34750924	330	636
1	34862586	331	742
1	34973884	332	689
1	35085384	333	583
1	35196859	334	901
1	35308040	335	424
1	35419640	336	1166
1	35531148	337	742
1	35642426	338	583
1	35753931	339	848
1	35865275	340	795
1	35976788	341	901
1	36088205	342	636
1	36199694	343	583
1	36311041	344	424
1	36422499	345	689
1	36534033	346	636
1	36645400	347	795
1	36756806	348	530
1	36868257	349	742
1	36979630	350	583
1	37091137	351	742
1	37202540	352	795
1	37313895	353	583
1	37425349	354	477
1	37536796	355	689
1	37648099	356	636
1	37759541	357	477
1	37871112	358	848
1	37982503	359	530
1	38093818	360	583
1	38205411	361	1219
1	38316847	362	1325
1	38428324	363	477
1	38539723	364	848
1	38651156	365	1007
1	38762594	366	636
1	38873912	367	424
1	38985352	368	371
1	39096835	369	583
1	39208294	370	636
1	39319569	371	1007
1	39430971	372	848
1	39542677	373	1007
1	39653969	374	742
1	39765568	375	1007
1	39876891	376	954
1	39988283	377	1007
1	40099674	378	1060
1	40211249	379	1060
1	40322565	380	742
1	40434118	381	742
1	40545498	382	1166
1	40656917	383	689
1	40768348	384	583
1	40879735	385	583
1	40991278	386	689
1	41102666	387	901
1	41214078	388	1272
1	41325391	389	583
1	41436780	390	742
1	41548361	391	477
1	41659774	392	371
1	41771273	393	636
1	41882680	394	530
1	41994091	395	689
1	42105472	396	583
1	42216931	397	689
1	42328378	398	1007
1	42439678	399	689
1	42551195	400	530
1	42662794	401	689
1	42773980	402	795
1	42885424	403	689
1	42996942	404	477
1	43108373	405	795
1	43219809	406	583
1	43331278	407	742
1	43442677	408	901
1	43554107	409	848
1	43665482	410	530
1	43776905	411	477
1	43888388	412	583
1	43999890	413	901
1	44111296	414	954
1	44222617	415	795
1	44334115	416	901
1	44445505	417	742
1	44556968	418	848
1	44668440	419	530
1	44779766	420	530
1	44891282	421	742
1	45002718	422	901
1	45114009	423	424
1	45225615	424	636
1	45336807	425	848
1	45448354	426	636
1	45559837	427	795
1	45671285	428	477
1	45782550	429	689
1	45894232	430	689
1	46005562	431	583
1	46116946	432	954
1	46228403	433	1166
1	46339958	434	583
1	46451282	435	477
1	46562679	436	848
1	46674146	437	742
1	46785475	438	636
1	46897002	439	424
1	47008389	440	742
1	47119747	441	477
1	47231239	442	795
1	47342661	443	742
1	47454108	444	318
1	47565556	445	795
1	47676909	446	583
1	47788348	447	1219
1	47899904	448	954
1	48011376	449	901
1	48122787	450	530
1	48234141	451	689
1	48345603	452	742
1	48457092	453	742
1	48568555	454	689
1	48679818	455	1272
1	48791369	456	901
1	48902869	457	636
1	49014126	458	795
1	49125527	459	583
1	49237069	460	689
1	49348406	461	901
1	49460001	462	530
1	49571294	463	1166
1	49682824	464	901
1	49794246	465	795
1	49905646	466	742
1	50017157	467	636
1	50128445	468	371
1	50239932	469	901
1	50351303	470	636
1	50462822	471	795
1	50574113	472	583
1	50685525	473	848
1	50797061	474	848
1	50908514	475	848
1	51019853	476	742
1	51131310	477	689
1	51242799	478	901
1	51354255	479	742
1	51465633	480	689
1	51577096	481	848
1	51688565	482	848
1	51800022	483	795
1	51911254	484	742
1	52022842	485	583
1	52134211	486	954
1	52245701	487	689
1	52357145	488	636
1	52468527	489	901
1	52580028	490	901
1	52691359	491	636
1	52802892	492	795
1	52914427	493	530
1	53025604	494	530
1	53137039	495	689
1	53248581	496	689
1	53360002	497	901
1	53471408	498	848
1	53582854	499	795
1	53694393	500	689
1	53805695	501	742
1	53917143	502	901
1	54028595	503	954
1	54140151	504	424
1	54251365	505	636
1	54362854	506	954
1	54474292	507	795
1	54585796	508	477
1	54697174	509	795
1	54808631	510	530
1	54920042	511	530
1	55031419	512	742
1	55142790	513	848
1	55254196	514	954
1	55365731	515	1113
1	55477209	516	901
1	55588635	517	689
1	55700054	518	636
1	55811459	519	583
1	55922912	520	636
1	56034395	521	795
1	56145851	522	742
1	56257089	523	636
1	56368620	524	424
1	56480084	525	689
1	56591612	526	954
1	56702725	527	318
1	56814273	528	742
1	56925786	529	901
1	57037099	530	848
1	57148624	531	583
1	57260134	532	848
1	57371413	533	742
1	57482884	534	1325
1	57594518	535	1113
1	57705848	536	689
1	57817168	537	1166
1	57928719	538	424
1	58040018	539	1060
1	58151448	540	1007
1	58263049	541	689
1	58374473	542	742
1	58485764	543	689
1	58597213	544	795
1	58708619	545	742
1	58820116	546	742
1	58931634	547	689
1	59042832	548	477
1	59154378	549	583
1	59265793	550	583
1	59377233	551	1113
1	59488637	552	848
1	59600081	553	530
1	59711537	554	583
1	59822917	555	795
1	59934436	556	954
1	60045898	557	795
1	60157110	558	689
1	60268672	559	689
1	60380166	560	689
1	60491621	561	530
1	60603107	562	848
1	60714336	563	424
1	60825870	564	795
1	60937372	565	689
1	61048618	566	636
1	61160043	567	742
1	61271595	568	636
1	61382896	569	1007
1	61494436	570	742
1	61605970	571	795
1	61717270	572	1060
1	61828796	573	477
1	61940138	574	795
1	62051542	575	371
1	62163104	576	742
1	62274534	577	795
1	62385899	578	424
1	62497331	579	795
1	62608802	580	848
1	62720180	581	954
1	62831616	582	1060
1	62943029	583	954
1	63054444	584	689
1	63165916	585	954
1	63277363	586	1007
1	63388808	587	795
1	63500169	588	901
1	63611719	589	901
1	63722997	590	795
1	63834498	591	477
1	63945870	592	848
1	64057433	593	795
1	64168919	594	689
1	64280230	595	1007
1	64391752	596	371
1	64503143	597	530
1	64614480	598	848
1	64725913	599	530
1	64837380	600	901
1	64948896	601	901
1	65060241	602	848
1	65171684	603	530
1	65283179	604	477
1	65394450	605	636
1	65506019	606	636
1	65617499	607	901
1	65728820	608	689
1	65840245	609	954
1	65951765	610	1007
1	66063155	611	848
1	66174576	612	795
1	66285992	613	530
1	66397453	614	795
1	66508961	615	636
1	66620222	616	477
1	66731709	617	848
1	66843064	618	636
1	66954477	619	901
1	67066007	620	583
1	67177426	621	848
1	67288754	622	795
1	67400169	623	424
1	67511689	624	530
1	67623194	625	1060
1	67734671	626	318
1	67845956	627	636
1	67957385	628	636
1	68068873	629	636
1	68180280	630	848
1	68291642	631	636
1	68403206	632	1007
1	68514648	633	742
1	68626020	634	795
1	68737535	635	742
1	68848919	636	742
1	68960296	637	742
1	69071856	638	954
1	69183110	639	689
1	69294638	640	901
1	69405978	641	583
1	69517433	642	795
1	69628811	643	689
1	69740376	644	848
1	69851771	645	742
1	69963363	646	424
1	70074686	647	848
1	70185946	648	636
1	70297404	649	848
1	70408966	650	689
1	70520348	651	689
1	70631645	652	318
1	70743098	653	848
1	70854675	654	636
1	70966117	655	689
1	71077516	656	636
1	71188826	657	689
1	71300413	658	1113
1	71411732	659	848
1	71523266	660	742
1	71634650	661	901
1	71746100	662	477
1	71857553	663	583
1	71969013	664	848
1	72080309	665	1325
1	72191847	666	901
1	72303290	667	689
1	72414672	668	901
1	72526204	669	1060
1	72637480	670	583
1	72748955	671	583
1	72860437	672	954
1	72971753	673	371
1	73083216	674	1219
1	73194744	675	530
1	73306057	676	1060
1	73417575	677	742
1	73529137	678	848
1	73640305	679	795
1	73751895	680	689
1	73863270	681	689
1	73974741	682	901
1	74086163	683	848
1	74197558	684	848
1	74309096	685	1113
1	74420487	686	954
1	74531837	687	795
1	74643401	688	848
1	74754765	689	477
1	74866153	690	795
1	74977554	691	742
1	75088979	692	424
1	75200423	693	583
1	75311917	694	742
1	75423284	695	1272
1	75534604	696	742
1	75646154	697	848
1	75757671	698	742
1	75869124	699	954
1	75980451	700	583
1	76091969	701	742
1	76203554	702	583
1	76314884	703	636
1	76426188	704	742
1	76537650	705	636
1	76648949	706	954
1	76760509	707	530
1	76871899	708	477
1	76983452	709	901
1	77094806	710	583
1	77206313	711	742
1	77317703	712	954
1	77429184	713	848
1	77540485	714	742
1	77651886	715	795
1	77763392	716	901
1	77874854	717	689
1	77986257	718	689
1	78097742	719	1007
1	78209122	720	689
1	78320465	721	795
1	78431888	722	689
1	78543514	723	795
1	78654861	724	742
1	78766243	725	530
1	78877691	726	424
1	78989079	727	583
1	79100416	728	901
1	79211953	729	795
1	79323431	730	424
1	79434696	731	1113
1	79546187	732	583
1	79657634	733	795
1	79769187	734	636
1	79880460	735	689
1	79991889	736	954
1	80103461	737	901
1	80214849	738	848
1	80326225	739	583
1	80437737	740	848
1	80549208	741	689
1	80660567	742	848
1	80772062	743	689
1	80883426	744	583
1	80995013	745	530
1	81106277	746	530
1	81217783	747	689
1	81329171	748	530
1	81440503	749	689
1	81551905	750	530
1	81663595	751	742
1	81774914	752	1007
1	81886251	753	636
1	81997869	754	530
1	82109346	755	954
1	82220603	756	689
1	82331978	757	583
1	82443597	758	795
1	82554865	759	477
1	82666202	760	583
1	82777684	761	848
1	82889119	762	583
1	83000610	763	477
1	83112116	764	1060
1	83223373	765	636
1	83334949	766	795
1	83446412	767	742
1	83557838	768	954
1	83669237	769	795
1	83780643	770	1166
1	83891974	771	742
1	84003549	772	742
1	84115037	773	795
1	84226390	774	795
1	84337869	775	848
1	84449228	776	689
1	84560585	777	848
1	84672055	778	583
1	84783528	779	1007
1	84894829	780	477
1	85006437	781	742
1	85117706	782	636
1	85229162	783	742
1	85340624	784	477
1	85452073	785	1007
1	85563485	786	848
1	85674966	787	795
1	85786320	788	742
1	85897848	789	530
1	86009172	790	689
1	86120593	791	742
1	86232115	792	1007
1	86343654	793	742
1	86454950	794	477
1	86566362	795	954
1	86677776	796	742
1	86789303	797	1007
1	86900769	798	689
1	87012214	799	848
1	87123586	800	583
1	87235005	801	901
1	87346478	802	530
1	87457810	803	477
1	87569190	804	636
1	87680659	805	371
1	87792038	806	954
1	87903707	807	848
1	88015062	808	477
1	88126381	809	689
1	88237761	810	1007
1	88349350	811	689
1	88460832	812	795
1	88572199	813	636
1	88683536	814	848
1	88794867	815	689
1	88906429	816	689
1	89017752	817	795
1	89129328	818	689
1	89240721	819	583
1	89352271	820	689
1	89463632	821	583
1	89575070	822	954
1	89686487	823	530
1	89797751	824	636
1	89909286	825	795
1	90020696	826	848
1	90132184	827	477
1	90243531	828	636
1	90355005	829	1060
1	90466613	830	901
1	90577830	831	636
1	90689301	832	530
1	90800635	833	795
1	90912213	834	954
1	91023708	835	742
1	91135082	836	689
1	91246521	837	795
1	91357978	838	477
1	91469262	839	795
1	91580836	840	1007
1	91692089	841	636
1	91803723	842	583
1	91915044	843	1272
1	92026608	844	848
1	92137957	845	742
1	92249358	846	742
1	92360939	847	583
1	92472217	848	848
1	92583731	849	689
1	92695200	850	477
1	92806580	851	954
1	92918041	852	636
1	93029374	853	742
1	93140770	854	689
1	93252218	855	795
1	93363727	856	689
1	93475051	857	954
1	93586609	858	636
1	93697912	859	636
1	93809516	860	1272
1	93920823	861	636
1	94032340	862	583
1	94143747	863	742
1	94255099	864	689
1	94366417	865	636
1	94478068	866	636
1	94589426	867	848
1	94700927	868	689
1	94812312	869	477
1	94923677	870	848
1	95035068	871	901
1	95146544	872	848
1	95257912	873	530
1	95369413	874	583
1	95480929	875	795
1	95592309	876	583
1	95703647	877	636
1	95815161	878	848
1	95926624	879	1113
1	96037947	880	742
1	96149353	881	636
1	96260745	882	477
1	96372329	883	742
1	96483707	884	583
1	96595174	885	636
1	96706608	886	530
1	96817982	887	901
1	96929454	888	795
1	97041040	889	742
1	97152343	890	954
1	97263845	891	1272
1	97375164	892	689
1	97486653	893	848
1	97598103	894	742
1	97709475	895	848
1	97820839	896	583
1	97932360	897	689
1	98043797	898	1007
1	98155279	899	848
1	98266539	900	583
1	98378071	901	795
1	98489516	902	1060
1	98600895	903	954
1	98712334	904	689
1	98823746	905	689
1	98935258	906	636
1	99046633	907	530
1	99158112	908	583
1	99269532	909	901
1	99380897	910	901
1	99492443	911	901
1	99603890	912	954
1	99715314	913	954
1	99826719	914	689
1	99938141	915	477
1	100049530	916	1113
1	100161067	917	424
1	100272490	918	636
1	100383758	919	795
1	100495241	920	689
1	100606699	921	954
1	100718199	922	954
1	100829478	923	689
1	100941018	924	1007
1	101052344	925	424
1	101163841	926	742
1	101275235	927	901
1	101386751	928	583
1	101498058	929	742
1	101609685	930	1060
1	101721013	931	477
1	101832458	932	795
1	101943805	933	1113
1	102055208	934	689
1	102166732	935	477
1	102278164	936	1113
1	102389500	937	1113
1	102500992	938	583
1	102612525	939	636
1	102723985	940	1007
1	102835296	941	742
1	102946712	942	1219
1	103058135	943	583
1	103169563	944	477
1	103281135	945	848
1	103392508	946	1007
1	103503986	947	1166
1	103615346	948	848
1	103726825	949	848
1	103838274	950	583
1	103949744	951	424
1	104061118	952	477
1	104172378	953	530
1	104283917	954	795
1	104395292	955	742
1	104506851	956	636
1	104618254	957	848
1	104729603	958	689
1	104841160	959	424
1	104952582	960	848
1	105063870	961	689
1	105175480	962	901
1	105286811	963	689
1	105398271	964	742
1	105509742	965	795
1	105621069	966	954
1	105732522	967	477
1	105843982	968	636
1	105955350	969	583
1	106066848	970	636
1	106178162	971	530
1	106289662	972	954
1	106401085	973	742
1	106512545	974	530
1	106623981	975	636
1	106735354	976	901
1	106846804	977	848
1	106958241	978	636
1	107069709	979	318
1	107181124	980	689
1	107292579	981	636
1	107403997	982	954
1	107515432	983	371
1	107626799	984	1166
1	107738310	985	954
1	107849835	986	742
1	107961088	987	1007
1	108072595	988	636
1	108184004	989	1007
1	108295427	990	689
1	108406943	991	583
1	108518393	992	689
1	108629713	993	1060
1	108741233	994	583
1	108852556	995	636
1	108964044	996	689
1	109075575	997	1166
1	109186824	998	530
1	109298323	999	689
2	96871	19	4396
2	207485	20	10375
2	318878	21	11129
2	430299	22	10895
2	541695	23	11033
2	653065	24	11041
2	764499	25	10984
2	875980	26	11101
2	987429	27	11043
2	1098915	28	11007
2	1210301	29	11022
2	1321732	30	11127
2	1433150	31	10985
2	1544518	32	10980
2	1656005	33	11017
2	1767444	34	11045
2	1878865	35	11056
2	1990327	36	10961
2	2101899	37	11098
2	2213183	38	10977
2	2324624	39	11027
2	2436005	40	11028
2	2547470	41	11081
2	2658929	42	10973
2	2770366	43	11053
2	2881760	44	10966
2	2993140	45	11022
2	3104550	46	11053
2	3216019	47	11059
2	3327453	48	11028
2	3438845	49	11047
2	3550294	50	11029
2	3661707	51	11040
2	3773203	52	10982
2	3884665	53	11075
2	3995970	54	10965
2	4107514	55	11075
2	4218963	56	11028
2	4330269	57	11015
2	4441726	58	11015
2	4553165	59	11017
2	4664597	60	11039
2	4776047	61	11061
2	4887431	62	10973
2	4998966	63	11035
2	5110475	64	11047
2	5221805	65	11054
2	5333182	66	11016
2	5444753	67	11006
2	5556041	68	11060
2	5667394	69	10980
2	5778920	70	11066
2	5890266	71	11008
2	6001766	72	11046
2	6113302	73	11029
2	6224639	74	10990
2	6336066	75	11083
2	6447576	76	11022
2	6558991	77	11005
2	6670448	78	10969
2	6781702	79	11032
2	6893279	80	11116
2	7004553	81	10975
2	7116176	82	11038
2	7227565	83	11022
2	7338989	84	11065
2	7450492	85	10993
2	7561762	86	11009
2	7673258	87	10996
2	7784659	88	11095
2	7896057	89	11046
2	8007565	90	10972
2	8119029	91	11080
2	8230498	92	10963
2	8341853	93	11092
2	8453347	94	10975
2	8564713	95	11003
2	8676077	96	11056
2	8787512	97	11031
2	8899020	98	11065
2	9010360	99	10990
2	9121956	100	10988
2	9233230	101	11008
2	9344799	102	11070
2	9456013	103	11054
2	9567659	104	11002
2	9679040	105	11018
2	9790486	106	11029
2	9901929	107	11118
2	10013388	108	10973
2	10124789	109	10981
2	10236085	110	11073
2	10347576	111	11001
2	10459046	112	11014
2	10570466	113	11030
2	10681926	114	11065
2	10793364	115	11025
2	10904782	116	11008
2	11016163	117	11081
2	11127567	118	10999
2	11239053	119	10946
2	11350379	120	11124
2	11461901	121	10971
2	11573405	122	11009
2	11684801	123	11069
2	11796310	124	11026
2	11907697	125	11033
2	12019150	126	10976
2	12130530	127	11074
2	12242026	128	11038
2	12353329	129	11027
2	12464836	130	11049
2	12576252	131	10971
2	12687603	132	11072
2	12799286	133	11050
2	12910522	134	10965
2	13022007	135	11058
2	13133353	136	11069
2	13244827	137	10931
2	13356200	138	11038
2	13467775	139	10999
2	13579084	140	11069
2	13690632	141	11025
2	13801821	142	11013
2	13913379	143	11030
2	14024737	144	11035
2	14136285	145	11071
2	14247784	146	11038
2	14359072	147	10976
2	14470528	148	11040
2	14581996	149	11090
2	14693433	150	10906
2	14804834	151	11089
2	14916133	152	11067
2	15027586	153	10991
2	15139199	154	10958
2	15250547	155	11006
2	15362110	156	11109
2	15473531	157	11045
2	15584908	158	11073
2	15696365	159	10990
2	15807712	160	10996
2	15919048	161	11024
2	16030594	162	11060
2	16141979	163	11042
2	16253464	164	10953
2	16364888	165	11065
2	16476304	166	10996
2	16587784	167	11096
2	16699177	168	11000
2	16810749	169	10993
2	16921959	170	11024
2	17033507	171	11061
2	17144916	172	11003
2	17256271	173	11104
2	17367868	174	10970
2	17479289	175	10991
2	17590574	176	10982
2	17702035	177	11085
2	17813510	178	11054
2	17925056	179	10973
2	18036447	180	11029
2	18147703	181	11060
2	18259168	182	10973
2	18370656	183	11082
2	18482103	184	10923
2	18593520	185	11090
2	18705006	186	10994
2	18816320	187	11110
2	18927888	188	10963
2	19039299	189	11042
2	19150776	190	10992
2	19262080	191	11023
2	19373530	192	11048
2	19485018	193	11050
2	19596425	194	11001
2	19707947	195	11003
2	19819286	196	11055
2	19930688	197	11039
2	20042169	198	11020
2	20153587	199	11015
2	20264960	200	11012
2	20376533	201	11042
2	20487887	202	11028
2	20599319	203	11057
2	20710731	204	11014
2	20822191	205	11006
2	20933723	206	11008
2	21045064	207	11103
2	21156421	208	10935
2	21268050	209	11112
2	21379348	210	11029
2	21490655	211	11018
2	21602148	212	10987
2	21713598	213	11045
2	21825027	214	11025
2	21936626	215	11079
2	22048053	216	10915
2	22159293	217	11103
2	22270713	218	10967
2	22382196	219	11096
2	22493659	220	11027
2	22605131	221	11059
2	22716582	222	10966
2	22827841	223	11072
2	22939323	224	10977
2	23050824	225	11039
2	23162273	226	11017
2	23273691	227	11068
2	23385116	228	10977
2	23496466	229	11053
2	23607984	230	11019
2	23719424	231	11010
2	23830725	232	11057
2	23942318	233	11079
2	24053512	234	10983
2	24165234	235	10996
2	24276605	236	11031
2	24387931	237	11070
2	24499404	238	10930
2	24610874	239	11106
2	24722243	240	11054
2	24833627	241	10938
2	24945090	242	11101
2	25056491	243	10998
2	25168004	244	11052
2	25279443	245	11011
2	25390855	246	11059
2	25502227	247	11049
2	25613656	248	10949
2	25725064	249	11003
2	25836480	250	11072
2	25947963	251	11048
2	26059332	252	11033
2	26170833	253	10947
2	26282345	254	11049
2	26393681	255	11051
2	26505104	256	11040
2	26616543	257	10945
2	26727934	258	11062
2	26839454	259	11105
2	26950811	260	11000
2	27062323	261	11052
2	27173844	262	10945
2	27285250	263	11143
2	27396477	264	10953
2	27508005	265	11013
2	27619552	266	11011
2	27730883	267	11068
2	27842399	268	11004
2	27953837	269	11036
2	28065072	270	11047
2	28176664	271	10937
2	28288138	272	11045
2	28399603	273	11081
2	28510924	274	11019
2	28622339	275	10981
2	28733786	276	11009
2	28845293	277	11091
2	28956651	278	11032
2	29068024	279	10987
2	29179443	280	11023
2	29290953	281	11078
2	29402356	282	11029
2	29513773	283	10995
2	29625266	284	10987
2	29736596	285	11102
2	29848160	286	10956
2	29959543	287	11058
2	30071005	288	11003
2	30182382	289	11110
2	30293825	290	10986
2	30405284	291	11078
2	30516614	292	10983
2	30628122	293	10990
2	30739585	294	11092
2	30850838	295	11015
2	30962447	296	10973
2	31073798	297	11069
2	31185306	298	11030
2	31296690	299	10979
2	31408194	300	11100
2	31519631	301	11026
2	31631082	302	10993
2	31742329	303	11044
2	31853719	304	11004
2	31965239	305	11086
2	32076643	306	10977
2	32188088	307	11066
2	32299501	308	11016
2	32410963	309	10976
2	32522473	310	11100
2	32633881	311	10949
2	32745331	312	11081
2	32856824	313	10976
2	32968099	314	11112
2	33079540	315	11000
2	33191040	316	10942
2	33302354	317	11079
2	33413845	318	11007
2	33525291	319	11002
2	33636798	320	11075
2	33748198	321	11050
2	33859639	322	11031
2	33971150	323	11020
2	34082529	324	11056
2	34193932	325	10994
2	34305500	326	11083
2	34416687	327	10927
2	34528151	328	11113
2	34639535	329	10979
2	34750924	330	11031
2	34862586	331	11053
2	34973884	332	10987
2	35085384	333	11085
2	35196859	334	11021
2	35308040	335	11053
2	35419640	336	10952
2	35531148	337	11024
2	35642426	338	11073
2	35753931	339	10939
2	35865275	340	11074
2	35976788	341	11057
2	36088205	342	11018
2	36199694	343	11028
2	36311041	344	11007
2	36422499	345	10995
2	36534033	346	11064
2	36645400	347	11053
2	36756806	348	11029
2	36868257	349	10988
2	36979630	350	11072
2	37091137	351	10994
2	37202540	352	11096
2	37313895	353	11050
2	37425349	354	10960
2	37536796	355	11022
2	37648099	356	11078
2	37759541	357	10981
2	37871112	358	11027
2	37982503	359	11044
2	38093818	360	11021
2	38205411	361	10999
2	38316847	362	11077
2	38428324	363	11009
2	38539723	364	11004
2	38651156	365	11011
2	38762594	366	11024
2	38873912	367	11070
2	38985352	368	11082
2	39096835	369	10928
2	39208294	370	11109
2	39319569	371	11037
2	39430971	372	10973
2	39542677	373	11018
2	39653969	374	11083
2	39765568	375	10965
2	39876891	376	11026
2	39988283	377	11040
2	40099674	378	10990
2	40211249	379	11050
2	40322565	380	11035
2	40434118	381	11026
2	40545498	382	11041
2	40656917	383	10986
2	40768348	384	10998
2	40879735	385	11124
2	40991278	386	10928
2	41102666	387	11101
2	41214078	388	11042
2	41325391	389	10969
2	41436780	390	11034
2	41548361	391	11023
2	41659774	392	11025
2	41771273	393	11053
2	41882680	394	11095
2	41994091	395	11015
2	42105472	396	10976
2	42216931	397	11031
2	42328378	398	10973
2	42439678	399	11093
2	42551195	400	10953
2	42662794	401	11106
2	42773980	402	10985
2	42885424	403	11085
2	42996942	404	11001
2	43108373	405	11052
2	43219809	406	10943
2	43331278	407	11155
2	43442677	408	10934
2	43554107	409	11051
2	43665482	410	11042
2	43776905	411	11021
2	43888388	412	11076
2	43999890	413	10945
2	44111296	414	11128
2	44222617	415	10938
2	44334115	416	11099
2	44445505	417	10943
2	44556968	418	11045
2	44668440	419	11050
2	44779766	420	11013
2	44891282	421	11034
2	45002718	422	10987
2	45114009	423	11072
2	45225615	424	11031
2	45336807	425	11060
2	45448354	426	11005
2	45559837	427	11046
2	45671285	428	11077
2	45782550	429	10942
2	45894232	430	11009
2	46005562	431	11114
2	46116946	432	11012
2	46228403	433	10919
2	46339958	434	11063
2	46451282	435	11090
2	46562679	436	10991
2	46674146	437	11034
2	46785475	438	11037
2	46897002	439	11059
2	47008389	440	10940
2	47119747	441	11050
2	47231239	442	11034
2	47342661	443	11085
2	47454108	444	10979
2	47565556	445	11057
2	47676909	446	10992
2	47788348	447	11065
2	47899904	448	10958
2	48011376	449	11098
2	48122787	450	10974
2	48234141	451	11097
2	48345603	452	10967