version 2
run BasicCC-1-20100908-23:50:39-3996
attr configname BasicCC
attr datetime 20100908-23:50:39
attr experiment BasicCC
attr inifile D:/Developement/Oversim2/multic/simulations/omnetpp.ini
attr iterationvars $nhops=3
attr iterationvars2 "$nhops=3, $repetition=0"
attr measurement $nhops=3
attr network oversim.underlay.simpleunderlay.SimpleUnderlayNetwork
attr nhops 3
attr processid 3996
attr repetition 0
attr replication #0
attr resultdir results
attr runnumber 1
attr seedset 1

vector 1  SimpleUnderlayNetwork.globalObserver.globalStatistics  incoming_bytes  ETV
vector 2  SimpleUnderlayNetwork.globalObserver.globalStatistics  drops  ETV
vector 3  SimpleUnderlayNetwork.globalObserver.globalStatistics  delayed_acks  ETV
vector 4  SimpleUnderlayNetwork.globalObserver.globalStatistics  "GlobalNodeList: Number of nodes"  ETV
vector 5  SimpleUnderlayNetwork.globalObserver.globalStatistics  "GlobalNodeList: Number of bootstrapped malicious nodes"  ETV
1	87257	20	1696
1	197699	21	5936
1	309259	22	8745
1	420702	23	4717
1	532279	24	4134
1	643810	25	4028
1	755306	26	3551
1	866749	27	3498
1	978220	28	3710
1	1089696	29	3710
1	1201204	30	4081
1	1312637	31	3657
1	1424160	32	4293
1	1535681	33	4346
1	1647203	34	3710
1	1758737	35	3286
1	1870072	36	3233
1	1981623	37	4134
1	2093107	38	4558
1	2204515	39	4134
1	2316072	40	3392
1	2427472	41	3551
1	2538891	42	3816
1	2650558	43	4028
1	2761930	44	3763
1	2873531	45	4346
1	2985040	46	2809
1	3096455	47	3392
1	3208092	48	3816
1	3319392	49	3922
1	3430973	50	3975
1	3542510	51	3657
1	3653878	52	4452
1	3765434	53	3922
1	3876961	54	4717
1	3988519	55	5088
1	4099974	56	3286
1	4211466	57	4081
1	4322917	58	3604
1	4434446	59	3922
1	4545878	60	3869
1	4657399	61	4028
1	4768881	62	3922
1	4880498	63	3816
1	4991903	64	3763
1	5103325	65	3710
1	5214860	66	4187
1	5326313	67	3763
1	5437763	68	4134
1	5549170	69	3657
1	5660799	70	4770
1	5772237	71	4187
1	5883777	72	4134
1	5995253	73	4134
1	6106769	74	4346
1	6218300	75	3710
1	6329816	76	5088
1	6441437	77	4558
1	6552747	78	3922
1	6664292	79	4982
1	6775779	80	4293
1	6887211	81	3074
1	6998810	82	3975
1	7110167	83	3657
1	7221815	84	4240
1	7333302	85	3551
1	7444788	86	4134
1	7556333	87	3710
1	7667675	88	3869
1	7779220	89	4081
1	7890748	90	4293
1	8002263	91	4293
1	8113728	92	3551
1	8225207	93	3975
1	8336739	94	3922
1	8448129	95	4346
1	8559584	96	3551
1	8671202	97	3657
1	8782704	98	4452
1	8894179	99	3445
1	9005602	100	3869
1	9117049	101	3286
1	9228560	102	3604
1	9340008	103	3604
1	9451453	104	4452
1	9563042	105	3498
1	9674572	106	3604
1	9786065	107	4187
1	9897462	108	3445
1	10009025	109	3286
1	10120368	110	3869
1	10232022	111	3922
1	10343468	112	3286
1	10454980	113	4187
1	10566341	114	4240
1	10677990	115	3339
1	10789373	116	3604
1	10900905	117	5035
1	11012427	118	3922
1	11123963	119	3922
1	11235354	120	4293
1	11346868	121	3604
1	11458332	122	3869
1	11569973	123	4293
1	11681334	124	3604
1	11792935	125	4081
1	11904343	126	3869
1	12015710	127	4293
1	12127341	128	3657
1	12238790	129	3657
1	12350214	130	3763
1	12461760	131	3763
1	12573257	132	4452
1	12684832	133	3498
1	12796342	134	3180
1	12907705	135	4823
1	13019310	136	3286
1	13130707	137	3657
1	13242113	138	4346
1	13353672	139	3604
1	13465078	140	4081
1	13576618	141	4664
1	13688180	142	3869
1	13799650	143	3975
1	13911129	144	3975
1	14022623	145	4081
1	14134289	146	3922
1	14245664	147	4293
1	14357148	148	3922
1	14468587	149	3869
1	14580071	150	3975
1	14691551	151	3604
1	14803063	152	4187
1	14914543	153	4081
1	15026214	154	4081
1	15137530	155	3869
1	15249179	156	4187
1	15360572	157	4452
1	15472084	158	4081
1	15583551	159	4399
1	15695141	160	4982
1	15806674	161	4664
1	15918099	162	4187
1	16029637	163	2915
1	16141083	164	4399
1	16252659	165	3922
1	16363954	166	4558
1	16475546	167	3710
1	16586964	168	3710
1	16698527	169	3869
1	16809953	170	4611
1	16921490	171	3498
1	17032849	172	3445
1	17144506	173	4134
1	17255962	174	3975
1	17367354	175	3710
1	17478936	176	4134
1	17590461	177	3816
1	17701849	178	3710
1	17813342	179	3604
1	17924973	180	3922
1	18036307	181	4240
1	18147890	182	4134
1	18259365	183	4240
1	18370912	184	3551
1	18482393	185	3922
1	18593852	186	4293
1	18705464	187	4187
1	18816806	188	4187
1	18928385	189	4028
1	19039847	190	4399
1	19151319	191	4293
1	19262882	192	4187
1	19374370	193	4134
1	19485827	194	4134
1	19597401	195	4293
1	19708831	196	3498
1	19820211	197	3816
1	19931778	198	4081
1	20043258	199	3657
1	20154725	200	4293
1	20266241	201	4081
1	20377829	202	3922
1	20489285	203	4505
1	20600700	204	3922
1	20712197	205	4028
1	20823718	206	4240
1	20935233	207	3551
1	21046634	208	3657
1	21158252	209	4187
1	21269805	210	3763
1	21381230	211	4187
1	21492616	212	3710
1	21604142	213	3498
1	21715678	214	3922
1	21827217	215	4187
1	21938637	216	2809
1	22050154	217	3127
1	22161512	218	3445
1	22273102	219	3286
1	22384587	220	4134
1	22496119	221	4346
1	22607470	222	3286
1	22719044	223	3498
1	22830500	224	3816
1	22941983	225	3922
1	23053460	226	3286
1	23164971	227	3498
1	23276473	228	3445
1	23387885	229	3657
1	23499347	230	3604
1	23610951	231	3498
1	23722391	232	3922
1	23833856	233	4134
1	23945406	234	4240
1	24056939	235	3763
1	24168261	236	4134
1	24279822	237	4293
1	24391411	238	3869
1	24502823	239	3816
1	24614247	240	3763
1	24725794	241	4187
1	24837264	242	3710
1	24948784	243	4346
1	25060363	244	4399
1	25171767	245	3922
1	25283215	246	3975
1	25394724	247	4399
1	25506219	248	3604
1	25617704	249	3869
1	25729245	250	3975
1	25840788	251	4028
1	25952233	252	4028
1	26063762	253	4028
1	26175258	254	4717
1	26286775	255	4611
1	26398224	256	4664
1	26509760	257	3922
1	26621246	258	3816
1	26732688	259	3710
1	26844300	260	3498
1	26955761	261	4399
1	27067128	262	4611
1	27178658	263	3657
1	27290187	264	3657
1	27401623	265	3922
1	27513178	266	4452
1	27624742	267	4505
1	27736142	268	4293
1	27847644	269	4505
1	27959197	270	3286
1	28070550	271	4452
1	28182136	272	3922
1	28293611	273	3922
1	28405066	274	3604
1	28516597	275	4293
1	28628018	276	4240
1	28739499	277	3551
1	28850993	278	4187
1	28962581	279	4134
1	29074052	280	3339
1	29185589	281	4028
1	29297096	282	3498
1	29408548	283	3392
1	29520012	284	4134
1	29631440	285	4346
1	29743045	286	3710
1	29854466	287	4929
1	29965949	288	2915
1	30077442	289	3498
1	30188926	290	3975
1	30300474	291	4240
1	30412008	292	4293
1	30523470	293	5883
1	30635035	294	4717
1	30746488	295	3922
1	30857943	296	3339
1	30969459	297	3816
1	31080783	298	3816
1	31192432	299	4081
1	31303963	300	4770
1	31415369	301	3127
1	31526896	302	4081
1	31638403	303	3922
1	31749909	304	3392
1	31861323	305	3710
1	31972814	306	4081
1	32084387	307	5300
1	32195808	308	3763
1	32307259	309	3021
1	32418803	310	3657
1	32530283	311	3604
1	32641890	312	3233
1	32753246	313	3922
1	32864754	314	3975
1	32976230	315	3657
1	33087806	316	3339
1	33199202	317	4505
1	33310842	318	4134
1	33422119	319	2915
1	33533630	320	3551
1	33645167	321	4346
1	33756729	322	3445
1	33868155	323	3922
1	33979579	324	3763
1	34091140	325	4399
1	34202549	326	4717
1	34314133	327	3922
1	34425560	328	3710
1	34537007	329	4558
1	34648606	330	3816
1	34760006	331	4452
1	34871600	332	4187
1	34983114	333	3869
1	35094416	334	4187
1	35206142	335	3392
1	35317470	336	3922
1	35429048	337	4028
1	35540607	338	4399
1	35652069	339	3127
1	35763472	340	3657
1	35874966	341	3657
1	35986618	342	3604
1	36097899	343	4240
1	36209537	344	3710
1	36320913	345	3763
1	36432529	346	3816
1	36543816	347	3551
1	36655433	348	4293
1	36766961	349	3763
1	36878442	350	4240
1	36989940	351	3604
1	37101497	352	4240
1	37212853	353	4399
1	37324468	354	3869
1	37435928	355	3551
1	37547397	356	4028
1	37658829	357	5300
1	37770447	358	5035
1	37881887	359	4346
1	37993416	360	3339
1	38104906	361	4028
1	38216367	362	4081
1	38327869	363	3657
1	38439325	364	4187
1	38550817	365	3445
1	38662293	366	4664
1	38773935	367	3922
1	38885417	368	3445
1	38996807	369	3498
1	39108306	370	3816
1	39219748	371	5035
1	39331294	372	2809
1	39442667	373	4081
1	39554230	374	3869
1	39665764	375	4664
1	39777305	376	4187
1	39888735	377	3922
1	40000201	378	4028
1	40111671	379	3763
1	40223245	380	4346
1	40334777	381	3763
1	40446134	382	3657
1	40557647	383	3445
1	40669078	384	3710
1	40780717	385	3180
1	40892025	386	4134
1	41003549	387	3286
1	41115112	388	3816
1	41226609	389	4134
1	41338005	390	3975
1	41449554	391	4664
1	41561054	392	3975
1	41672543	393	3975
1	41784089	394	4240
1	41895531	395	3657
1	42006977	396	3816
1	42118581	397	3445
1	42229914	398	3339
1	42341408	399	3710
1	42452890	400	3816
1	42564470	401	3392
1	42675908	402	4558
1	42787474	403	4505
1	42898969	404	4134
1	43010401	405	4081
1	43121946	406	4452
1	43233432	407	3445
1	43344968	408	3551
1	43456482	409	4081
1	43567933	410	4240
1	43679373	411	4028
1	43790857	412	3975
1	43902458	413	3869
1	44013822	414	4611
1	44125363	415	3975
1	44236786	416	3763
1	44348251	417	3816
1	44459835	418	3975
1	44571363	419	4240
1	44682744	420	4240
1	44794338	421	4240
1	44905894	422	3233
1	45017330	423	4717
1	45128811	424	3657
1	45240244	425	3816
1	45351753	426	3975
1	45463247	427	4346
1	45574706	428	4452
1	45686226	429	4081
1	45797800	430	4611
1	45909319	431	3657
1	46020801	432	4028
1	46132304	433	4346
1	46243777	434	4240
1	46355230	435	3763
1	46466772	436	4240
1	46578156	437	3657
1	46689669	438	4399
1	46801180	439	3604
1	46912780	440	2968
1	47024265	441	4293
1	47135600	442	3233
1	47247209	443	4028
1	47358592	444	4134
1	47470123	445	4028
1	47581561	446	3816
1	47693177	447	5247
1	47804559	448	5035
1	47916159	449	3392
1	48027709	450	4717
1	48139157	451	4134
1	48250631	452	4028
1	48362093	453	3551
1	48473630	454	3975
1	48585118	455	3816
1	48696672	456	3975
1	48808049	457	4346
1	48919602	458	4134
1	49031115	459	4770
1	49142640	460	4399
1	49254089	461	3763
1	49365472	462	3975
1	49477101	463	3922
1	49588515	464	3816
1	49699865	465	3445
1	49811627	466	5300
1	49923075	467	4929
1	50034621	468	3604
1	50146035	469	3975
1	50257484	470	3763
1	50369024	471	3869
1	50480536	472	4346
1	50592077	473	4081
1	50703540	474	3869
1	50814919	475	4187
1	50926539	476	4187
1	51037899	477	4293
1	51149489	478	3657
1	51261001	479	4187
1	51372524	480	3286
1	51483886	481	4558
1	51595486	482	3816
1	51706935	483	4293
1	51818446	484	4452
1	51929931	485	3816
1	52041444	486	4346
1	52152958	487	4399
1	52264316	488	3339
1	52375893	489	4240
1	52487426	490	4081
1	52598868	491	4452
1	52710349	492	3922
1	52821896	493	3763
1	52933455	494	3763
1	53044816	495	4717
1	53156433	496	3975
1	53267982	497	4929
1	53379519	498	4081
1	53490789	499	4505
1	53602340	500	3498
1	53713897	501	4187
1	53825337	502	4293
1	53936925	503	3816
1	54048310	504	4399
1	54159745	505	3180
1	54271279	506	4346
1	54382757	507	3339
1	54494238	508	4505
1	54605871	509	4399
1	54717274	510	3869
1	54828755	511	3763
1	54940335	512	4346
1	55051820	513	4823
1	55163147	514	3869
1	55274684	515	4240
1	55386289	516	3551
1	55497801	517	4134
1	55609287	518	4187
1	55720711	519	4081
1	55832195	520	3710
1	55943716	521	4770
1	56055184	522	3339
1	56166685	523	4399
1	56278186	524	3922
1	56389678	525	3710
1	56501107	526	3551
1	56612671	527	3816
1	56724144	528	4187
1	56835619	529	3922
1	56947098	530	4664
1	57058554	531	4293
1	57170161	532	4028
1	57281663	533	4611
1	57392980	534	4240
1	57504569	535	3657
1	57616116	536	4293
1	57727550	537	4081
1	57838978	538	3869
1	57950514	539	3604
1	58062025	540	3339
1	58173589	541	4452
1	58285000	542	3445
1	58396467	543	3922
1	58508041	544	3816
1	58619439	545	3498
1	58730944	546	3498
1	58842444	547	3657
1	58954040	548	4770
1	59065488	549	4081
1	59176960	550	3657
1	59288430	551	4664
1	59399869	552	3604
1	59511468	553	3922
1	59622950	554	3233
1	59734476	555	3710
1	59845943	556	4346
1	59957477	557	5353
1	60068953	558	4929
1	60180397	559	3816
1	60291881	560	4187
1	60403388	561	4081
1	60514906	562	4558
1	60626492	563	3392
1	60737857	564	3816
1	60849442	565	4240
1	60960837	566	4611
1	61072393	567	4558
1	61183859	568	4028
1	61295416	569	3975
1	61406790	570	3286
1	61518322	571	4823
1	61629837	572	3657
1	61741354	573	3975
1	61852892	574	4081
1	61964422	575	4876
1	62075915	576	3816
1	62187360	577	3445
1	62298755	578	3710
1	62410405	579	4717
1	62521876	580	3498
1	62633287	581	2915
1	62744709	582	3286
1	62856237	583	5247
1	62967857	584	3551
1	63079234	585	4134
1	63190736	586	4770
1	63302157	587	3657
1	63413785	588	4982
1	63525235	589	4081
1	63636703	590	3869
1	63748212	591	4346
1	63859718	592	3816
1	63971172	593	4664
1	64082662	594	3604
1	64194118	595	3710
1	64305669	596	3763
1	64417197	597	5247
1	64528738	598	4187
1	64640235	599	3498
1	64751660	600	4187
1	64863134	601	3392
1	64974572	602	3498
1	65086212	603	3763
1	65197517	604	3551
1	65309020	605	3763
1	65420593	606	3604
1	65532059	607	3763
1	65643537	608	4770
1	65754985	609	4028
1	65866540	610	3816
1	65977931	611	3922
1	66089631	612	3869
1	66200960	613	4293
1	66312490	614	4240
1	66423999	615	3816
1	66535498	616	4187
1	66647016	617	4452
1	66758340	618	4664
1	66869974	619	3286
1	66981561	620	3551
1	67092858	621	4664
1	67204331	622	3551
1	67315893	623	3975
1	67427355	624	3869
1	67538986	625	4770
1	67650312	626	4240
1	67761976	627	4664
1	67873523	628	4399
1	67984927	629	5035
1	68096529	630	5141
1	68207978	631	4134
1	68319528	632	3975
1	68431053	633	5194
1	68542419	634	3498
1	68653915	635	3657
1	68765406	636	3869
1	68876954	637	4717
1	68988434	638	3975
1	69099847	639	4081
1	69211488	640	4081
1	69322925	641	3604
1	69434365	642	4770
1	69545903	643	3922
1	69657511	644	3922
1	69768834	645	3551
1	69880350	646	4452
1	69991823	647	3816
1	70103385	648	4187
1	70214815	649	3710
1	70326441	650	3763
1	70437836	651	4187
1	70549384	652	4240
1	70660743	653	3286
1	70772450	654	3816
1	70883853	655	4028
1	70995302	656	4187
1	71106776	657	3021
1	71218408	658	4346
1	71329769	659	3604
1	71441262	660	4187
1	71552867	661	3922
1	71664099	662	3604
1	71775695	663	3869
1	71887230	664	4081
1	71998740	665	4293
1	72110237	666	4081
1	72221737	667	3922
1	72333192	668	4876
1	72444642	669	4028
1	72556131	670	3445
1	72667689	671	3392
1	72779098	672	2968
1	72890718	673	4293
1	73002104	674	3975
1	73113561	675	4134
1	73225199	676	4664
1	73336536	677	3816
1	73448066	678	3498
1	73559616	679	4240
1	73671155	680	3869
1	73782570	681	4346
1	73894066	682	4558
1	74005528	683	4399
1	74117098	684	3180
1	74228560	685	3339
1	74340063	686	4346
1	74451533	687	4558
1	74563024	688	3286
1	74674504	689	3445
1	74785992	690	3498
1	74897507	691	4028
1	75008978	692	3710
1	75120422	693	4929
1	75232008	694	4134
1	75343439	695	4664
1	75454985	696	4823
1	75566381	697	3763
1	75677939	698	4187
1	75789464	699	3710
1	75900914	700	3975
1	76012502	701	4187
1	76123825	702	3922
1	76235425	703	3816
1	76346854	704	3286
1	76458348	705	3551
1	76569880	706	3657
1	76681267	707	3869
1	76792890	708	4187
1	76904355	709	3180
1	77015923	710	4558
1	77127332	711	4558
1	77238828	712	3498
1	77350232	713	4081
1	77461687	714	4399
1	77573326	715	3710
1	77684876	716	4929
1	77796376	717	3233
1	77907761	718	3869
1	78019272	719	3710
1	78130636	720	4134
1	78242303	721	3657
1	78353797	722	3975
1	78465220	723	3816
1	78576742	724	3869
1	78688148	725	3498
1	78799758	726	3551
1	78911157	727	2862
1	79022679	728	4240
1	79134131	729	3498
1	79245659	730	4293
1	79357101	731	4134
1	79468466	732	3922
1	79580077	733	4346
1	79691629	734	4770
1	79803015	735	2915
1	79914645	736	4081
1	80025932	737	4081
1	80137565	738	4823
1	80249119	739	3604
1	80360473	740	4240
1	80472061	741	4982
1	80583513	742	3604
1	80695064	743	3763
1	80806528	744	4558
1	80918049	745	4505
1	81029683	746	4558
1	81141096	747	4028
1	81252590	748	3021
1	81363989	749	3975
1	81475527	750	3127
1	81586971	751	4240
1	81698399	752	4399
1	81810039	753	4187
1	81921429	754	4187
1	82032915	755	4505
1	82144505	756	3233
1	82255877	757	3551
1	82367413	758	3763
1	82478957	759	3180
1	82590425	760	3922
1	82701890	761	4558
1	82813447	762	4240
1	82924854	763	3180
1	83036342	764	3922
1	83147886	765	4187
1	83259378	766	4293
1	83370774	767	4823
1	83482298	768	4982
1	83593922	769	3392
1	83705308	770	3551
1	83816836	771	3763
1	83928354	772	4187
1	84039805	773	3180
1	84151246	774	4611
1	84262793	775	3922
1	84374250	776	3922
1	84485814	777	3445
1	84597255	778	4240
1	84708737	779	3286
1	84820172	780	4134
1	84931765	781	4452
1	85043232	782	4028
1	85154650	783	4028
1	85266233	784	3445
1	85377758	785	3975
1	85489260	786	4399
1	85600679	787	4929
1	85712168	788	4346
1	85823651	789	4664
1	85935136	790	4028
1	86046657	791	4081
1	86158164	792	3763
1	86269812	793	4240
1	86381196	794	4399
1	86492597	795	4028
1	86604230	796	3922
1	86715659	797	4399
1	86827100	798	4240
1	86938602	799	4240
1	87050210	800	3127
1	87161665	801	4399
1	87273180	802	3922
1	87384533	803	4134
1	87496119	804	3710
1	87607714	805	4293
1	87719129	806	3816
1	87830574	807	3392
1	87942100	808	4558
1	88053584	809	4717
1	88165062	810	3922
1	88276549	811	3922
1	88388051	812	2968
1	88499562	813	4982
1	88610999	814	3286
1	88722490	815	4187
1	88834092	816	4028
1	88945511	817	3816
1	89056933	818	3604
1	89168530	819	4399
1	89279964	820	4346
1	89391505	821	3604
1	89502926	822	3922
1	89614533	823	4823
1	89725970	824	4028
1	89837426	825	2968
1	89948975	826	4452
1	90060437	827	4823
1	90171869	828	3392
1	90283388	829	4081
1	90394902	830	4399
1	90506495	831	3498
1	90617862	832	3551
1	90729315	833	4505
1	90840972	834	3339
1	90952489	835	3975
1	91063888	836	4028
1	91175206	837	4028
1	91286824	838	3657
1	91398308	839	3551
1	91509798	840	4611
1	91621330	841	3763
1	91732803	842	4293
1	91844298	843	3498
1	91955892	844	4399
1	92067287	845	4028
1	92178751	846	4134
1	92290366	847	3445
1	92401836	848	3710
1	92513320	849	4717
1	92624722	850	3710
1	92736133	851	3763
1	92847671	852	3763
1	92959184	853	4028
1	93070588	854	3763
1	93182082	855	3445
1	93293633	856	3021
1	93405217	857	5141
1	93516634	858	4134
1	93628191	859	3233
1	93739633	860	4240
1	93851215	861	4611
1	93962601	862	3922
1	94074119	863	3498
1	94185586	864	2915
1	94297066	865	4346
1	94408651	866	3922
1	94519998	867	3233
1	94631500	868	4028
1	94743068	869	4611
1	94854417	870	2703
1	94965980	871	3021
1	95077451	872	4240
1	95188984	873	3922
1	95300454	874	4823
1	95411965	875	4558
1	95523466	876	4664
1	95634858	877	4770
1	95746377	878	3975
1	95858014	879	3498
1	95969478	880	3604
1	96080899	881	3710
1	96192532	882	3551
1	96303961	883	4134
1	96415387	884	4558
1	96526867	885	4028
1	96638409	886	3657
1	96750026	887	3975
1	96861535	888	3763
1	96972894	889	3127
1	97084304	890	4134
1	97195883	891	4293
1	97307521	892	3657
1	97418745	893	3763
1	97530323	894	4293
1	97641776	895	4346
1	97753274	896	4081
1	97864888	897	3869
1	97976382	898	4611
1	98087729	899	3869
1	98199473	900	4664
1	98310821	901	4187
1	98422256	902	3710
1	98533765	903	4134
1	98645401	904	4081
1	98756786	905	4134
1	98868299	906	3763
1	98979835	907	4187
1	99091284	908	3975
1	99202817	909	3551
1	99314203	910	3498
1	99425645	911	4293
1	99537113	912	3551
1	99648751	913	3498
1	99760170	914	4028
1	99871659	915	4452
1	99983250	916	2544
1	100094644	917	4134
1	100206160	918	3551
1	100317705	919	4558
1	100429011	920	3922
1	100540661	921	4081
1	100652147	922	3975
1	100763582	923	3710
1	100875087	924	4346
1	100986629	925	3975
1	101098099	926	3869
1	101209546	927	4346
1	101321001	928	4558
1	101432652	929	3551
1	101543972	930	3922
1	101655462	931	4823
1	101767032	932	4134
1	101878557	933	3975
1	101990030	934	4611
1	102101496	935	3763
1	102213003	936	4346
1	102324586	937	3922
1	102436066	938	4028
1	102547442	939	4770
1	102659045	940	4134
1	102770391	941	3657
1	102881965	942	3498
1	102993481	943	4028
1	103104976	944	3498
1	103216402	945	4187
1	103328090	946	3975
1	103439436	947	3339
1	103550887	948	4028
1	103662405	949	4187
1	103773888	950	4558
1	103885380	951	4558
1	103996896	952	4399
1	104108495	953	4558
1	104219840	954	4187
1	104331420	955	4134
1	104442994	956	4452
1	104554400	957	4346
1	104665950	958	3975
1	104777472	959	3604
1	104888950	960	3975
1	105000288	961	3816
1	105111855	962	4611
1	105223540	963	3498
1	105334789	964	4293
1	105446308	965	3763
1	105557899	966	4081
1	105669316	967	3604
1	105780736	968	3233
1	105892296	969	3816
1	106003871	970	4187
1	106115227	971	3816
1	106226772	972	3975
1	106338288	973	3657
1	106449741	974	4293
1	106561248	975	3604
1	106672719	976	4505
1	106784090	977	3922
1	106895700	978	4187
1	107007114	979	4028
1	107118862	980	5035
1	107230214	981	4134
1	107341577	982	3657
1	107453173	983	3551
1	107564733	984	4187
1	107676280	985	3551
1	107787643	986	4081
1	107899128	987	2915
1	108010621	988	4611
1	108122158	989	3551
1	108233641	990	3975
1	108345052	991	4293
1	108456642	992	3445
1	108568159	993	4028
1	108679648	994	4717
1	108791107	995	4134
1	108902666	996	3657
1	109014120	997	3710
1	109125558	998	4346
1	109237052	999	3710
2	87257	20	3504
2	197699	21	10354
2	309259	22	10862
2	420702	23	10938
2	532279	24	10998
2	643810	25	10948
2	755306	26	11014
2	866749	27	10916
2	978220	28	11041
2	1089696	29	10884
2	1201204	30	11013
2	1312637	31	10929
2	1424160	32	10999
2	1535681	33	10991
2	1647203	34	10939
2	1758737	35	11015
2	1870072	36	10964
2	1981623	37	10928
2	2093107	38	10957
2	2204515	39	10933
2	2316072	40	10982
2	2427472	41	10933
2	2538891	42	10931
2	2650558	43	11088
2	2761930	44	10988
2	2873531	45	10947
2	2985040	46	10946
2	3096455	47	10981
2	3208092	48	11064
2	3319392	49	10852
2	3430973	50	11011
2	3542510	51	11044
2	3653878	52	10862
2	3765434	53	10981
2	3876961	54	10970
2	3988519	55	10930
2	4099974	56	10995
2	4211466	57	10930
2	4322917	58	11004
2	4434446	59	10933
2	4545878	60	10975
2	4657399	61	11009
2	4768881	62	10896
2	4880498	63	11027
2	4991903	64	11005
2	5103325	65	10968
2	5214860	66	10917
2	5326313	67	10909
2	5437763	68	11006
2	5549170	69	10934
2	5660799	70	11033
2	5772237	71	10916
2	5883777	72	10987
2	5995253	73	10967
2	6106769	74	10916
2	6218300	75	10984
2	6329816	76	10963
2	6441437	77	11009
2	6552747	78	10947
2	6664292	79	10943
2	6775779	80	10942
2	6887211	81	11011
2	6998810	82	10955
2	7110167	83	10973
2	7221815	84	10948
2	7333302	85	10998
2	7444788	86	10931
2	7556333	87	10970
2	7667675	88	10969
2	7779220	89	10968
2	7890748	90	10993
2	8002263	91	10991
2	8113728	92	10922
2	8225207	93	10964
2	8336739	94	10926
2	8448129	95	10994
2	8559584	96	11000
2	8671202	97	10903
2	8782704	98	11041
2	8894179	99	10908
2	9005602	100	10991
2	9117049	101	10958
2	9228560	102	10938
2	9340008	103	11028
2	9451453	104	10864
2	9563042	105	11049
2	9674572	106	10991
2	9786065	107	10876
2	9897462	108	11028
2	10009025	109	11006
2	10120368	110	11002
2	10232022	111	10897
2	10343468	112	11018
2	10454980	113	10977
2	10566341	114	10941
2	10677990	115	10947
2	10789373	116	11022
2	10900905	117	10962
2	11012427	118	10903
2	11123963	119	11028
2	11235354	120	11004
2	11346868	121	10908
2	11458332	122	10944
2	11569973	123	11066
2	11681334	124	10869
2	11792935	125	11026
2	11904343	126	10918
2	12015710	127	11016
2	12127341	128	10975
2	12238790	129	10910
2	12350214	130	11016
2	12461760	131	10943
2	12573257	132	10979
2	12684832	133	10943
2	12796342	134	11021
2	12907705	135	10969
2	13019310	136	10958
2	13130707	137	10942
2	13242113	138	10995
2	13353672	139	10965
2	13465078	140	10951
2	13576618	141	10933
2	13688180	142	11013
2	13799650	143	10914
2	13911129	144	10970
2	14022623	145	10931
2	14134289	146	11009
2	14245664	147	10939
2	14357148	148	10956
2	14468587	149	10975
2	14580071	150	11026
2	14691551	151	10927
2	14803063	152	10974
2	14914543	153	10930
2	15026214	154	11024
2	15137530	155	10978
2	15249179	156	10878
2	15360572	157	11002
2	15472084	158	10998
2	15583551	159	10901
2	15695141	160	11000
2	15806674	161	10959
2	15918099	162	10934
2	16029637	163	11001
2	16141083	164	10947
2	16252659	165	10999
2	16363954	166	10917
2	16475546	167	10948
2	16586964	168	11004
2	16698527	169	10940
2	16809953	170	10934
2	16921490	171	11002
2	17032849	172	11009
2	17144506	173	10934
2	17255962	174	11035
2	17367354	175	10937
2	17478936	176	10961
2	17590461	177	10954
2	17701849	178	10923
2	17813342	179	11023
2	17924973	180	10986
2	18036307	181	10929
2	18147890	182	11035
2	18259365	183	10863
2	18370912	184	11058
2	18482393	185	10930
2	18593852	186	11008
2	18705464	187	10876
2	18816806	188	10955
2	18928385	189	11035
2	19039847	190	10903
2	19151319	191	10936
2	19262882	192	11018
2	19374370	193	11009
2	19485827	194	10918
2	19597401	195	10977
2	19708831	196	10962
2	19820211	197	10956
2	19931778	198	10963
2	20043258	199	10969
2	20154725	200	10936
2	20266241	201	10960
2	20377829	202	10945
2	20489285	203	10997
2	20600700	204	10962
2	20712197	205	11012
2	20823718	206	10962
2	20935233	207	10955
2	21046634	208	10937
2	21158252	209	11060
2	21269805	210	10908
2	21381230	211	10892
2	21492616	212	11043
2	21604142	213	10965
2	21715678	214	10994
2	21827217	215	10905
2	21938637	216	11062
2	22050154	217	10908
2	22161512	218	10945
2	22273102	219	11042
2	22384587	220	10910
2	22496119	221	11032
2	22607470	222	10939
2	22719044	223	11022
2	22830500	224	10958
2	22941983	225	10963
2	23053460	226	10945
2	23164971	227	11056
2	23276473	228	10962
2	23387885	229	10860
2	23499347	230	11081
2	23610951	231	10947
2	23722391	232	11009
2	23833856	233	10868
2	23945406	234	11019
2	24056939	235	10958
2	24168261	236	10924
2	24279822	237	11044
2	24391411	238	10914
2	24502823	239	10948
2	24614247	240	11019
2	24725794	241	10977
2	24837264	242	10923
2	24948784	243	10977
2	25060363	244	10984
2	25171767	245	10935
2	25283215	246	10953
2	25394724	247	10949
2	25506219	248	10958
2	25617704	249	11063
2	25729245	250	10909
2	25840788	251	10934
2	25952233	252	10947
2	26063762	253	11028
2	26175258	254	10963
2	26286775	255	10947
2	26398224	256	10940
2	26509760	257	10908
2	26621246	258	11032
2	26732688	259	10953
2	26844300	260	11030
2	26955761	261	10892
2	27067128	262	10974
2	27178658	263	10962
2	27290187	264	10983
2	27401623	265	10995
2	27513178	266	11006
2	27624742	267	10858
2	27736142	268	10968
2	27847644	269	10987
2	27959197	270	10986
2	28070550	271	10925
2	28182136	272	10963
2	28293611	273	11040
2	28405066	274	10961
2	28516597	275	10937
2	28628018	276	10941
2	28739499	277	10956
2	28850993	278	10950
2	28962581	279	10990
2	29074052	280	10918
2	29185589	281	11000
2	29297096	282	10984
2	29408548	283	10916
2	29520012	284	11043
2	29631440	285	10934
2	29743045	286	11030
2	29854466	287	10933
2	29965949	288	11002
2	30077442	289	10935
2	30188926	290	11002
2	30300474	291	10961
2	30412008	292	10966
2	30523470	293	10898
2	30635035	294	10995
2	30746488	295	10942
2	30857943	296	10983
2	30969459	297	10897
2	31080783	298	11041
2	31192432	299	10930
2	31303963	300	10895
2	31415369	301	11040
2	31526896	302	10950
2	31638403	303	11002
2	31749909	304	11021
2	31861323	305	10937
2	31972814	306	10922
2	32084387	307	10972
2	32195808	308	10960
2	32307259	309	10908
2	32418803	310	11037
2	32530283	311	10925
2	32641890	312	11061
2	32753246	313	10979
2	32864754	314	10924
2	32976230	315	10931
2	33087806	316	11005
2	33199202	317	10970
2	33310842	318	10986
2	33422119	319	10995
2	33533630	320	10996
2	33645167	321	10924
2	33756729	322	10995
2	33868155	323	10985
2	33979579	324	10935
2	34091140	325	10993
2	34202549	326	10897
2	34314133	327	10901
2	34425560	328	11091
2	34537007	329	10955
2	34648606	330	10916
2	34760006	331	10959
2	34871600	332	10949
2	34983114	333	11001
2	35094416	334	10946
2	35206142	335	11030
2	35317470	336	10890
2	35429048	337	11000
2	35540607	338	11005
2	35652069	339	10942
2	35763472	340	10941
2	35874966	341	11007
2	35986618	342	10995
2	36097899	343	10886
2	36209537	344	11010
2	36320913	345	10971
2	36432529	346	10983
2	36543816	347	10914
2	36655433	348	11009
2	36766961	349	10954
2	36878442	350	10922
2	36989940	351	11050
2	37101497	352	10958
2	37212853	353	10938
2	37324468	354	10945
2	37435928	355	11028
2	37547397	356	10927
2	37658829	357	11020
2	37770447	358	10951
2	37881887	359	10899
2	37993416	360	11004
2	38104906	361	10923
2	38216367	362	10986
2	38327869	363	10926
2	38439325	364	10957
2	38550817	365	10985
2	38662293	366	10967
2	38773935	367	10963
2	38885417	368	10974
2	38996807	369	10966
2	39108306	370	10977
2	39219748	371	10951
2	39331294	372	10987
2	39442667	373	10962
2	39554230	374	10887
2	39665764	375	11074
2	39777305	376	10971
2	39888735	377	10939
2	40000201	378	10947
2	40111671	379	11033
2	40223245	380	10957
2	40334777	381	10908
2	40446134	382	10903
2	40557647	383	11045
2	40669078	384	10982
2	40780717	385	11017
2	40892025	386	10926
2	41003549	387	10973
2	41115112	388	10985
2	41226609	389	10995
2	41338005	390	10909
2	41449554	391	10945
2	41561054	392	11001
2	41672543	393	10987
2	41784089	394	10909
2	41895531	395	11029
2	42006977	396	10940
2	42118581	397	11016
2	42229914	398	10991
2	42341408	399	10877
2	42452890	400	11001
2	42564470	401	11020
2	42675908	402	10915
2	42787474	403	10934
2	42898969	404	10979
2	43010401	405	10966
2	43121946	406	10964
2	43233432	407	11015
2	43344968	408	10928
2	43456482	409	11025
2	43567933	410	10897
2	43679373	411	10970
2	43790857	412	10992
2	43902458	413	10957
2	44013822	414	10995