version 2
run PerfectCC-0-20100909-02:10:26-3072
attr configname PerfectCC
attr datetime 20100909-02:10:26
attr experiment PerfectCC
attr inifile D:/Developement/Oversim2/multic/simulations/omnetpp.ini
attr iterationvars $nhops=2
attr iterationvars2 "$nhops=2, $repetition=0"
attr measurement $nhops=2
attr network oversim.underlay.simpleunderlay.SimpleUnderlayNetwork
attr nhops 2
attr processid 3072
attr repetition 0
attr replication #0
attr resultdir results
attr runnumber 0
attr seedset 0

vector 1  SimpleUnderlayNetwork.globalObserver.globalStatistics  incoming_bytes  ETV
vector 2  SimpleUnderlayNetwork.globalObserver.globalStatistics  drops  ETV
vector 3  SimpleUnderlayNetwork.globalObserver.globalStatistics  delayed_acks  ETV
vector 4  SimpleUnderlayNetwork.globalObserver.globalStatistics  rate  ETV
vector 5  SimpleUnderlayNetwork.globalObserver.globalStatistics  timetotimeouts  ETV
vector 6  SimpleUnderlayNetwork.globalObserver.globalStatistics  "GlobalNodeList: Number of nodes"  ETV
vector 7  SimpleUnderlayNetwork.globalObserver.globalStatistics  "GlobalNodeList: Number of bootstrapped malicious nodes"  ETV
1	4356	17	0
1	90523	18	121900
1	173782	19	110187
1	264263	20	133984
1	355008	21	131811
1	445181	22	130963
1	537551	23	137323
1	629802	24	136846
1	720181	25	131334
1	812346	26	137217
1	902207	27	130221
1	993280	28	134938
1	1083575	29	132235
1	1173803	30	130963
1	1263609	31	131016
1	1354893	32	135309
1	1445270	33	132288
1	1536507	34	135203
1	1627603	35	134461
1	1718374	36	133030
1	1808454	37	130751
1	1899808	38	136157
1	1990237	39	132341
1	2079860	40	131652
1	2171885	41	136422
1	2261743	42	130698
1	2353221	43	135733
1	2443709	44	132712
1	2534469	45	133560
1	2625573	46	134461
1	2716517	47	134090
1	2807926	48	135892
1	2898748	49	133772
1	2990483	50	136687
1	3081231	51	132871
1	3171640	52	132341
1	3261702	53	131387
1	3352663	54	135256
1	3444126	55	134938
1	3533926	56	131175
1	3625471	57	136157
1	3715886	58	132129
1	3806672	59	134143
1	3897799	60	134567
1	3988146	61	131917
1	4078422	62	132023
1	4169519	63	135309
1	4260950	64	135839
1	4351270	65	131758
1	4442402	66	134461
1	4532313	67	131228
1	4623583	68	135044
1	4713521	69	132553
1	4805089	70	135468
1	4895004	71	130274
1	4986060	72	135309
1	5076748	73	133719
1	5167384	74	133083
1	5258122	75	133772
1	5348996	76	134249
1	5439188	77	131917
1	5530440	78	135786
1	5621168	79	133242
1	5710998	80	131281
1	5802227	81	134885
1	5892661	82	132500
1	5983679	83	133984
1	6074634	84	134938
1	6166019	85	135468
1	6257718	86	136316
1	6349389	87	137164
1	6440673	88	134938
1	6530789	89	131122
1	6620447	90	130910
1	6711326	91	133878
1	6802370	92	134832
1	6893101	93	133242
1	6984592	94	136528
1	7075290	95	133719
1	7165678	96	133507
1	7257130	97	135627
1	7347538	98	132394
1	7438390	99	133984
1	7529274	100	133825
1	7619667	101	132182
1	7710723	102	135468
1	7802217	103	135468
1	7892767	104	132553
1	7981938	105	129002
1	8072938	106	133613
1	8162660	107	130857
1	8253483	108	133719
1	8343873	109	132871
1	8434111	110	131652
1	8524737	111	133083
1	8615009	112	132659
1	8706360	113	135574
1	8797334	114	133878
1	8888229	115	134673
1	8978999	116	133189
1	9068414	117	129956
1	9159110	118	133348
1	9250439	119	135468
1	9341832	120	135574
1	9432232	121	131811
1	9522680	122	133295
1	9612774	123	131334
1	9703476	124	132977
1	9792870	125	129426
1	9883661	126	133613
1	9974396	127	133878
1	10065258	128	134143
1	10155979	129	132712
1	10245766	130	130751
1	10337081	131	134620
1	10426300	132	129797
1	10517218	133	134302
1	10608191	134	134514
1	10698568	135	132712
1	10789918	136	135309
1	10879248	137	130327
1	10970773	138	135256
1	11061357	139	132659
1	11152092	140	133560
1	11242946	141	134779
1	11333822	142	133772
1	11423301	143	129691
1	11514202	144	134673
1	11604982	145	133931
1	11696476	146	135839
1	11787001	147	133878
1	11878773	148	136528
1	11968097	149	128366
1	12059262	150	135309
1	12150506	151	135203
1	12240928	152	132924
1	12331209	153	131811
1	12422106	154	134249
1	12512481	155	133507
1	12603916	156	135574
1	12694486	157	132712
1	12783908	158	129638
1	12875304	159	135839
1	12966773	160	135945
1	13057689	161	134090
1	13148496	162	133719
1	13238741	163	132606
1	13330307	164	136528
1	13421156	165	133295
1	13512119	166	133666
1	13601474	167	130115
1	13692739	168	135627
1	13784273	169	135680
1	13874619	170	132818
1	13965577	171	134249
1	14056428	172	133666
1	14147451	173	133931
1	14238104	174	133189
1	14329849	175	136793
1	14421067	176	135044
1	14512541	177	135680
1	14602509	178	130963
1	14693645	179	134567
1	14783841	180	132341
1	14875000	181	134779
1	14966323	182	135839
1	15056919	183	132977
1	15147639	184	133401
1	15237794	185	132129
1	15328917	186	134673
1	15419414	187	132447
1	15510137	188	133878
1	15600048	189	132447
1	15691147	190	133560
1	15781847	191	133295
1	15872646	192	133931
1	15963330	193	133401
1	16054018	194	133348
1	16144476	195	133189
1	16234890	196	133083
1	16326098	197	134779
1	16416740	198	132818
1	16507499	199	133878
1	16598147	200	133030
1	16689042	201	133613
1	16779501	202	132924
1	16869778	203	132818
1	16960537	204	134090
1	17051742	205	134567
1	17142013	206	131811
1	17232998	207	134461
1	17323615	208	133560
1	17413720	209	132500
1	17505011	210	135521
1	17595517	211	133030
1	17686375	212	133878
1	17777248	213	133878
1	17867464	214	131705
1	17957761	215	132924
1	18048596	216	134408
1	18139538	217	134461
1	18230374	218	133825
1	18321156	219	133931
1	18412703	220	135574
1	18502604	221	131493
1	18594265	222	136104
1	18683869	223	129797
1	18774372	224	133825
1	18865889	225	135309
1	18957054	226	135150
1	19047799	227	133295
1	19138760	228	135150
1	19229723	229	134037
1	19320872	230	134461
1	19410730	231	130274
1	19501382	232	134408
1	19593173	233	137376
1	19684190	234	133931
1	19774295	235	130963
1	19865511	236	135150
1	19955247	237	131387
1	20046303	238	134143
1	20137059	239	134037
1	20227127	240	130963
1	20318030	241	134355
1	20408742	242	132818
1	20499351	243	133719
1	20589725	244	133295
1	20681133	245	135150
1	20771477	246	132659
1	20861306	247	131546
1	20952018	248	133772
1	21042354	249	132341
1	21133145	250	133825
1	21222975	251	131440
1	21314314	252	135627
1	21404870	253	133136
1	21495708	254	133613
1	21586464	255	133242
1	21677356	256	134037
1	21768394	257	134779
1	21859999	258	137270
1	21950979	259	133454
1	22041910	260	133984
1	22132807	261	134302
1	22223696	262	133242
1	22314250	263	134090
1	22405467	264	134567
1	22495001	265	129638
1	22586231	266	135680
1	22676673	267	132818
1	22767369	268	133613
1	22858308	269	134302
1	22948840	270	132712
1	23039561	271	133242
1	23129291	272	130963
1	23220619	273	134938
1	23310559	274	130592
1	23400442	275	132076
1	23491079	276	133613
1	23581771	277	133295
1	23672757	278	134355
1	23763851	279	135097
1	23854458	280	133507
1	23945687	281	133931
1	24034938	282	128949
1	24126376	283	136157
1	24217303	284	134037
1	24308143	285	133878
1	24398418	286	132500
1	24489628	287	135256
1	24580604	288	134408
1	24671981	289	135256
1	24762921	290	133931
1	24853174	291	132447
1	24945055	292	137058
1	25035526	293	132447
1	25125767	294	131546
1	25215330	295	131440
1	25306412	296	134408
1	25396861	297	132288
1	25486426	298	130327
1	25576846	299	133295
1	25668372	300	136104
1	25759013	301	132871
1	25849107	302	131758
1	25939981	303	134090
1	26030822	304	133825
1	26122169	305	135680
1	26212065	306	131599
1	26302614	307	132500
1	26391251	308	126988
1	26481404	309	133454
1	26572667	310	134461
1	26663739	311	134461
1	26754472	312	134037
1	26845425	313	134673
1	26936404	314	133984
1	27027002	315	133136
1	27117939	316	133825
1	27208013	317	132023
1	27299500	318	135733
1	27389834	319	131493
1	27479963	320	131705
1	27570254	321	132977
1	27661805	322	136210
1	27751924	323	131599
1	27842784	324	134196
1	27934092	325	135574
1	28025225	326	134408
1	28114333	327	128366
1	28204370	328	131917
1	28294981	329	133454
1	28386079	330	134779
1	28476498	331	132977
1	28567374	332	133666
1	28656645	333	128949
1	28747280	334	133931
1	28838066	335	134249
1	28928737	336	132712
1	29019170	337	133136
1	29109581	338	132500
1	29200659	339	134567
1	29291516	340	133825
1	29379815	341	127094
1	29471415	342	135627
1	29561410	343	130751
1	29652395	344	134726
1	29743240	345	133242
1	29833298	346	131334
1	29924110	347	135044
1	30015359	348	135256
1	30106284	349	134143
1	30197492	350	134991
1	30287950	351	132553
1	30379074	352	134302
1	30469470	353	131864
1	30560371	354	134408
1	30651424	355	135097
1	30742903	356	135680
1	30831924	357	127889
1	30922360	358	134090
1	31013633	359	134885
1	31104760	360	134143
1	31194747	361	131811
1	31285095	362	132447
1	31374921	363	131122
1	31464836	364	130486
1	31554566	365	130751
1	31645348	366	133931
1	31735502	367	131546
1	31826880	368	135415
1	31918076	369	134514
1	32007560	370	130433
1	32099244	371	136475
1	32190137	372	134514
1	32281075	373	133507
1	32371284	374	132447
1	32461640	375	131917
1	32552298	376	133825
1	32643723	377	135839
1	32733552	378	130062
1	32822384	379	128366
1	32913614	380	134885
1	33005104	381	135998
1	33094858	382	130380
1	33185746	383	133931
1	33275928	384	132129
1	33367620	385	136316
1	33456696	386	128578
1	33548059	387	135839
1	33638614	388	133507
1	33729841	389	135203
1	33820346	390	132606
1	33911111	391	133189
1	34001761	392	133242
1	34093149	393	136528
1	34184505	394	135044
1	34275176	395	133560
1	34365485	396	132606
1	34456175	397	133030
1	34547713	398	136634
1	34639383	399	136051
1	34730359	400	133719
1	34822112	401	137323
1	34913532	402	135097
1	35004414	403	133560
1	35094727	404	132606
1	35185970	405	134673
1	35275924	406	131758
1	35367309	407	135839
1	35458002	408	133030
1	35548948	409	134461
1	35639165	410	130963
1	35730053	411	134673
1	35820804	412	134461
1	35911752	413	133878
1	36001870	414	131016
1	36092036	415	131970
1	36183055	416	135150
1	36274083	417	134196
1	36364672	418	132659
1	36455883	419	135150
1	36546432	420	133560
1	36637400	421	134249
1	36728187	422	134302
1	36819059	423	133295
1	36909932	424	134037
1	37000818	425	134355
1	37092413	426	136263
1	37183319	427	133984
1	37274728	428	135627
1	37365755	429	134673
1	37455896	430	131016
1	37546257	431	133507
1	37637393	432	134567
1	37727830	433	132023
1	37817817	434	132076
1	37909113	435	135733
1	38000327	436	134832
1	38090674	437	132076
1	38180746	438	131440
1	38271445	439	133931
1	38362372	440	133878
1	38453447	441	135203
1	38545001	442	135998
1	38636187	443	135097
1	38727623	444	134991
1	38817747	445	131705
1	38909023	446	135097
1	38999869	447	134037
1	39090681	448	134408
1	39181735	449	134620
1	39272487	450	133931
1	39363582	451	134461
1	39453748	452	131387
1	39543960	453	133348
1	39634809	454	133348
1	39725823	455	133825
1	39816537	456	133454
1	39907404	457	134196
1	39998822	458	135733
1	40089179	459	132553
1	40179450	460	131864
1	40269768	461	132500
1	40361015	462	134991
1	40451244	463	132235
1	40542326	464	134726
1	40633133	465	134090
1	40723833	466	132553
1	40814504	467	133348
1	40905874	468	136104
1	40996992	469	134673
1	41087965	470	134143
1	41179640	471	136899
1	41270744	472	134779
1	41362235	473	134938
1	41451604	474	128896
1	41543306	475	136793
1	41633055	476	130486
1	41724260	477	134673
1	41814874	478	133242
1	41905936	479	134567
1	41995892	480	131705
1	42087613	481	137058
1	42178192	482	133030
1	42269249	483	134673
1	42361035	484	135998
1	42450494	485	130221
1	42541507	486	134355
1	42631800	487	132129
1	42722556	488	133772
1	42813157	489	132765
1	42903406	490	131599
1	42994014	491	133984
1	43086095	492	137217
1	43176035	493	130910
1	43267498	494	136581
1	43359466	495	136687
1	43448571	496	129055
1	43539832	497	134620
1	43628794	498	127200
1	43719505	499	134408
1	43809900	500	132818
1	43900151	501	132182
1	43991296	502	134885
1	44081614	503	132606
1	44172771	504	134461
1	44263319	505	132871
1	44353979	506	133507
1	44445133	507	135150
1	44535644	508	132765
1	44626991	509	135468
1	44717391	510	131970
1	44808195	511	134461
1	44898784	512	133931
1	44989597	513	132924
1	45079465	514	131387
1	45171274	515	136687
1	45261487	516	131440
1	45352283	517	134832
1	45442756	518	132182
1	45532655	519	131228
1	45623828	520	134885
1	45714513	521	132871
1	45804694	522	131599
1	45895269	523	133984
1	45986265	524	134090
1	46076702	525	132712
1	46167575	526	135044
1	46258548	527	133454
1	46348552	528	131440
1	46439711	529	134620
1	46530776	530	134355
1	46622478	531	136528
1	46713443	532	133878
1	46804956	533	135627
1	46895442	534	132977
1	46986737	535	134302
1	47076200	536	130115
1	47167424	537	134832
1	47257858	538	132500
1	47348217	539	132606
1	47438715	540	133401
1	47530105	541	134355
1	47619015	542	128737
1	47711021	543	137217
1	47802234	544	134302
1	47892885	545	133560
1	47983652	546	134037
1	48074019	547	133507
1	48165310	548	135362
1	48255657	549	132182
1	48346030	550	132447
1	48437476	551	135574
1	48527140	552	130751
1	48618891	553	136740
1	48709807	554	133454
1	48799865	555	131811
1	48891158	556	135574
1	48982850	557	136051
1	49072493	558	129002
1	49163159	559	134726
1	49254885	560	136581
1	49346163	561	134726
1	49436092	562	131440
1	49527517	563	135362
1	49617825	564	132447
1	49709339	565	135362
1	49799923	566	133242
1	49890659	567	133984
1	49980652	568	130804
1	50071303	569	133772
1	50162871	570	135627
1	50252592	571	130751
1	50343993	572	135521
1	50434531	573	133136
1	50525833	574	135521
1	50616390	575	133348
1	50707051	576	132924
1	50798289	577	134938
1	50889299	578	134567
1	50980316	579	134567
1	51071309	580	134355
1	51161895	581	133295
1	51253155	582	134779
1	51344410	583	135150
1	51435947	584	136634
1	51527052	585	134037
1	51616985	586	131122
1	51707860	587	133878
1	51798442	588	133507
1	51889892	589	135574
1	51981381	590	135362
1	52071562	591	131864
1	52162347	592	132924
1	52252265	593	130963
1	52342983	594	134090
1	52433747	595	133136
1	52524126	596	132076
1	52614116	597	131175
1	52704362	598	131599
1	52795223	599	134355
1	52886697	600	135892
1	52977612	601	133984
1	53068577	602	134779
1	53159563	603	134143
1	53250087	604	133348
1	53340307	605	131334
1	53431317	606	134779
1	53522087	607	134037
1	53612633	608	133613
1	53703732	609	134302
1	53794653	610	134037
1	53885168	611	132977
1	53975706	612	133454
1	54067495	613	137058
1	54158090	614	132288
1	54247381	615	129320
1	54338593	616	136210
1	54427803	617	128101
1	54517535	618	131122
1	54608897	619	135680
1	54699987	620	134938
1	54790380	621	132341
1	54881914	622	135574
1	54971660	623	131599
1	55063253	624	135680
1	55153254	625	131652
1	55244602	626	135044
1	55334561	627	131281
1	55424719	628	131599
1	55514990	629	133083
1	55606558	630	135733
1	55696052	631	130168
1	55786938	632	133560
1	55876851	633	130645
1	55967292	634	133772
1	56058751	635	135786
1	56149343	636	133454
1	56240860	637	135468
1	56331220	638	132871
1	56422979	639	135892
1	56512752	640	131387
1	56603976	641	135044
1	56694644	642	133772
1	56785401	643	133030
1	56875981	644	133454
1	56966965	645	134461
1	57057461	646	132606
1	57147938	647	132871
1	57238877	648	133984
1	57328719	649	130274
1	57418847	650	132924
1	57510403	651	135362
1	57600791	652	132977
1	57691181	653	132712
1	57782344	654	135415
1	57873288	655	134567
1	57964276	656	134143
1	58054812	657	132182
1	58145931	658	135044
1	58236393	659	132924
1	58327472	660	134779
1	58418001	661	132500
1	58508736	662	133613
1	58599811	663	134408
1	58691338	664	135097
1	58782064	665	134037
1	58873539	666	135892
1	58964897	667	136051
1	59056267	668	135203
1	59146487	669	132076
1	59237740	670	134991
1	59327897	671	131599
1	59418180	672	132394
1	59508459	673	132182
1	59599281	674	133454
1	59689314	675	131758
1	59780491	676	134302
1	59871202	677	133454
1	59961207	678	131758
1	60052988	679	137217
1	60143976	680	133507
1	60233469	681	130539
1	60323799	682	131917
1	60415012	683	135468
1	60506077	684	133984
1	60596006	685	131546
1	60685671	686	130645
1	60776201	687	132765
1	60867649	688	135256
1	60958445	689	134355
1	61048457	690	131334
1	61138943	691	132765
1	61229431	692	132606
1	61320291	693	134514
1	61410996	694	133242
1	61500736	695	130963
1	61592125	696	135680
1	61681801	697	129956
1	61772691	698	134143
1	61863331	699	133083
1	61954325	700	134567
1	62045628	701	135044
1	62135429	702	130486
1	62226573	703	134779
1	62316509	704	130963
1	62408106	705	136634
1	62499467	706	135521
1	62589808	707	131917
1	62680104	708	132129
1	62770350	709	132500
1	62861148	710	133401
1	62951644	711	132553
1	63042635	712	134461
1	63133371	713	133825
1	63223939	714	133613
1	63315646	715	135680
1	63404668	716	129055
1	63496037	717	135521
1	63586851	718	134037
1	63676870	719	131864
1	63767539	720	132871
1	63859117	721	136793
1	63950308	722	133772
1	64039247	723	128525
1	64130705	724	136422
1	64221371	725	133030
1	64312367	726	134249
1	64402820	727	133030
1	64492653	728	131228
1	64584442	729	135945
1	64673573	730	128260
1	64764069	731	133560
1	64854815	732	133931
1	64945870	733	133772
1	65035793	734	131599
1	65127772	735	137747
1	65218307	736	132447
1	65309724	737	136210
1	65400431	738	133295
1	65491817	739	135150
1	65581803	740	131599
1	65673228	741	135998
1	65763760	742	132765
1	65855355	743	136157
1	65946460	744	134885
1	66037432	745	133666
1	66126970	746	129585
1	66218271	747	136104
1	66310015	748	135945
1	66399970	749	131864
1	66491425	750	135892
1	66581902	751	132765
1	66672837	752	134461
1	66763974	753	134143
1	66854605	754	133242
1	66944770	755	132182
1	67035706	756	134461
1	67126371	757	133030
1	67216924	758	132871
1	67307369	759	133083
1	67398459	760	134620
1	67489632	761	134779
1	67581028	762	135256
1	67670856	763	130327
1	67761702	764	134620
1	67852845	765	134673
1	67943385	766	133189
1	68033245	767	131281
1	68123890	768	133136
1	68214398	769	133560
1	68305042	770	133136
1	68394820	771	130168
1	68485779	772	134037
1	68575717	773	131440
1	68666291	774	133666
1	68757790	775	135574
1	68847564	776	131122
1	68938965	777	135627
1	69029717	778	133560
1	69120429	779	133507
1	69211205	780	133507
1	69302211	781	134779
1	69393177	782	134885
1	69484362	783	134620
1	69573631	784	130539
1	69665663	785	136104
1	69756179	786	132606
1	69847435	787	135627
1	69938100	788	133136
1	70028822	789	133613
1	70119652	790	133507
1	70210902	791	134991
1	70301118	792	132182
1	70392294	793	134885
1	70482948	794	133613
1	70574291	795	135574
1	70665672	796	134726
1	70756391	797	134090
1	70846317	798	130857
1	70936623	799	132288
1	71027971	800	136369
1	71119194	801	134620
1	71210301	802	134408
1	71300413	803	131493
1	71391569	804	135839
1	71481842	805	132606
1	71572542	806	133666
1	71663044	807	132500
1	71753877	808	133401
1	71843096	809	129055
1	71933820	810	134302
1	72024538	811	133454
1	72114715	812	132076
1	72205878	813	134196
1	72296426	814	133295
1	72387935	815	136846
1	72479161	816	134196
1	72569857	817	133348
1	72660479	818	132818
1	72751093	819	133295
1	72841212	820	132659
1	72932777	821	136157
1	73023037	822	132023
1	73113979	823	134090
1	73205174	824	135256
1	73296291	825	134832
1	73387163	826	134090
1	73477326	827	131970
1	73567528	828	131705
1	73658020	829	132977
1	73748093	830	131016
1	73838483	831	133242
1	73928821	832	132553
1	74020160	833	134991
1	74110095	834	131705
1	74202008	835	137217
1	74292019	836	131440
1	74383061	837	133878
1	74473498	838	132394
1	74564337	839	134779
1	74654501	840	131069
1	74744937	841	133348
1	74835603	842	133242
1	74926781	843	134461
1	75016392	844	130433
1	75107950	845	136422
1	75197644	846	129956
1	75288755	847	134885
1	75379419	848	133189
1	75469906	849	133242
1	75560387	850	132977
1	75650966	851	133189
1	75742379	852	135415
1	75832250	853	130963
1	75923355	854	135097
1	76014712	855	135150
1	76105413	856	133719
1	76196363	857	134090
1	76286098	858	131122
1	76376912	859	134196
1	76466418	860	129426
1	76557442	861	134673
1	76647853	862	132924
1	76738951	863	134673
1	76829406	864	132182
1	76919324	865	132924
1	77010532	866	133931
1	77100561	867	131016
1	77191493	868	134514
1	77282345	869	134143
1	77373000	870	133878
1	77463667	871	133295
1	77554507	872	133878
1	77644807	873	132500
1	77736091	874	134567
1	77826627	875	132341
1	77916655	876	132394
1	78007922	877	134832
1	78098177	878	132553
1	78189404	879	135097
1	78278991	880	131069
1	78369744	881	132553
1	78460795	882	134779
1	78552151	883	135044
1	78642537	884	132712
1	78733655	885	134302
1	78823445	886	131016
1	78915027	887	135998
1	79005923	888	133825
1	79096675	889	133560
1	79187210	890	133401
1	79278065	891	134090
1	79367675	892	129691
1	79457636	893	132182
1	79548321	894	133295
1	79639395	895	134355
1	79728794	896	130062
1	79819863	897	134938
1	79910399	898	133348
1	80002125	899	135574
1	80091391	900	128737
1	80182449	901	135415
1	80273873	902	135627
1	80363311	903	129373
1	80454365	904	135468
1	80545032	905	133189
1	80635644	906	133401
1	80726938	907	134938
1	80816859	908	131546
1	80908015	909	134461
1	80998379	910	132977
1	81089288	911	134196
1	81180662	912	135309
1	81270828	913	132076
1	81360434	914	130433
1	81451119	915	133931
1	81541718	916	133931
1	81633361	917	135627
1	81724193	918	133242
1	81813868	919	130221
1	81904545	920	133984
1	81995935	921	135521
1	82086304	922	132871
1	82177665	923	136051
1	82268844	924	134461
1	82358737	925	130433
1	82448674	926	131705
1	82539855	927	135203
1	82630652	928	132818
1	82720059	929	130380
1	82811393	930	135680
1	82901986	931	133083
1	82993102	932	134567
1	83084159	933	134938
1	83174542	934	131652
1	83265100	935	133719
1	83356258	936	134938
1	83446362	937	131599
1	83537600	938	134461
1	83627268	939	130327
1	83718773	940	136263
1	83809679	941	134567
1	83900413	942	132818
1	83991006	943	133666
1	84082057	944	134779
1	84172878	945	133984
1	84263158	946	131599
1	84353370	947	132500
1	84444584	948	134991
1	84535245	949	133136
1	84625389	950	132341
1	84716989	951	136210
1	84808003	952	134673
1	84899157	953	134832
1	84989048	954	131175
1	85080312	955	134567
1	85170587	956	132500
1	85261739	957	135044
1	85352614	958	134090
1	85443426	959	134355
1	85534836	960	135256
1	85624786	961	130963
1	85716034	962	136051
1	85806899	963	133825
1	85897346	964	132500
1	85988426	965	134832
1	86080225	966	136475
1	86171534	967	135468
1	86262393	968	133401
1	86351265	969	128684
1	86442611	970	135521
1	86533637	971	134673
1	86624821	972	134673
1	86715096	973	132341
1	86805301	974	131917
1	86896281	975	134514
1	86987237	976	134620
1	87078281	977	134461
1	87168775	978	132712
1	87258148	979	130380
1	87349461	980	134991
1	87439577	981	132023
1	87530685	982	134726
1	87621034	983	131811
1	87711286	984	132447
1	87802293	985	134885
1	87893608	986	135150
1	87984871	987	135362
1	88076087	988	134408
1	88166723	989	133984
1	88258156	990	135574
1	88347986	991	130539
1	88439098	992	135203
1	88529752	993	133348
1	88621108	994	134620
1	88710945	995	131864
1	88802606	996	136581
1	88893377	997	133401
1	88984344	998	134355
1	89074626	999	132235
2	4356	17	0
2	90523	18	539
2	173782	19	76
2	264263	20	138
2	355008	21	120
2	445181	22	54
2	537551	23	59
2	629802	24	116
2	720181	25	20
2	812346	26	122
2	902207	27	42
2	993280	28	92
2	1083575	29	112
2	1173803	30	104
2	1263609	31	31
2	1354893	32	94
2	1445270	33	62
2	1536507	34	36
2	1627603	35	77
2	1718374	36	130
2	1808454	37	57
2	1899808	38	55
2	1990237	39	92
2	2079860	40	35
2	2171885	41	138
2	2261743	42	44
2	2353221	43	74
2	2443709	44	62
2	2534469	45	67
2	2625573	46	63
2	2716517	47	43
2	2807926	48	74
2	2898748	49	27
2	2990483	50	86
2	3081231	51	96
2	3171640	52	98
2	3261702	53	41
2	3352663	54	58
2	3444126	55	115
2	3533926	56	29
2	3625471	57	101
2	3715886	58	71
2	3806672	59	45
2	3897799	60	86
2	3988146	61	93
2	4078422	62	56
2	4169519	63	42
2	4260950	64	94
2	4351270	65	64
2	4442402	66	128
2	4532313	67	18
2	4623583	68	100
2	4713521	69	30
2	4805089	70	118
2	4895004	71	54
2	4986060	72	49
2	5076748	73	69
2	5167384	74	60
2	5258122	75	51
2	5348996	76	78
2	5439188	77	41
2	5530440	78	67
2	5621168	79	76
2	5710998	80	52
2	5802227	81	88
2	5892661	82	64
2	5983679	83	77
2	6074634	84	33
2	6166019	85	39
2	6257718	86	30
2	6349389	87	46
2	6440673	88	95
2	6530789	89	80
2	6620447	90	55
2	6711326	91	49
2	6802370	92	64
2	6893101	93	22
2	6984592	94	58
2	7075290	95	25
2	7165678	96	38
2	7257130	97	102
2	7347538	98	59
2	7438390	99	61
2	7529274	100	79
2	7619667	101	63
2	7710723	102	45
2	7802217	103	76
2	7892767	104	159
2	7981938	105	72
2	8072938	106	146
2	8162660	107	66
2	8253483	108	78
2	8343873	109	86
2	8434111	110	68
2	8524737	111	98
2	8615009	112	44
2	8706360	113	53
2	8797334	114	48
2	8888229	115	68
2	8978999	116	118
2	9068414	117	86
2	9159110	118	76
2	9250439	119	37
2	9341832	120	92
2	9432232	121	62
2	9522680	122	107
2	9612774	123	94
2	9703476	124	152
2	9792870	125	69
2	9883661	126	86
2	9974396	127	70
2	10065258	128	93
2	10155979	129	128
2	10245766	130	47
2	10337081	131	100
2	10426300	132	44
2	10517218	133	49
2	10608191	134	79
2	10698568	135	35
2	10789918	136	103
2	10879248	137	35
2	10970773	138	84
2	11061357	139	70
2	11152092	140	40
2	11242946	141	50
2	11333822	142	103
2	11423301	143	42
2	11514202	144	62
2	11604982	145	34
2	11696476	146	55
2	11787001	147	28
2	11878773	148	140
2	11968097	149	53
2	12059262	150	39
2	12150506	151	100
2	12240928	152	59
2	12331209	153	67
2	12422106	154	55
2	12512481	155	30
2	12603916	156	85
2	12694486	157	115
2	12783908	158	48
2	12875304	159	20
2	12966773	160	56
2	13057689	161	59
2	13148496	162	71
2	13238741	163	43
2	13330307	164	79
2	13421156	165	52
2	13512119	166	107
2	13601474	167	34
2	13692739	168	42
2	13784273	169	114
2	13874619	170	56
2	13965577	171	79
2	14056428	172	85
2	14147451	173	76
2	14238104	174	40
2	14329849	175	64
2	14421067	176	50
2	14512541	177	102
2	14602509	178	61
2	14693645	179	79
2	14783841	180	58
2	14875000	181	36
2	14966323	182	89
2	15056919	183	54
2	15147639	184	114
2	15237794	185	21
2	15328917	186	92
2	15419414	187	51
2	15510137	188	89
2	15600048	189	68
2	15691147	190	61
2	15781847	191	53
2	15872646	192	61
2	15963330	193	78
2	16054018	194	65
2	16144476	195	65
2	16234890	196	50
2	16326098	197	90
2	16416740	198	74
2	16507499	199	72
2	16598147	200	77
2	16689042	201	89
2	16779501	202	82
2	16869778	203	46
2	16960537	204	60
2	17051742	205	86
2	17142013	206	51
2	17232998	207	65
2	17323615	208	40
2	17413720	209	25
2	17505011	210	76
2	17595517	211	80
2	17686375	212	52
2	17777248	213	87
2	17867464	214	65
2	17957761	215	42
2	18048596	216	33
2	18139538	217	50
2	18230374	218	62
2	18321156	219	53
2	18412703	220	104
2	18502604	221	27
2	18594265	222	145
2	18683869	223	47
2	18774372	224	31
2	18865889	225	54
2	18957054	226	86
2	19047799	227	30
2	19138760	228	60
2	19229723	229	62
2	19320872	230	122
2	19410730	231	53
2	19501382	232	19
2	19593173	233	75
2	19684190	234	116
2	19774295	235	38
2	19865511	236	96
2	19955247	237	67
2	20046303	238	68
2	20137059	239	90
2	20227127	240	67
2	20318030	241	94
2	20408742	242	66
2	20499351	243	41
2	20589725	244	33
2	20681133	245	77
2	20771477	246	60
2	20861306	247	27
2	20952018	248	69
2	21042354	249	57
2	21133145	250	84
2	21222975	251	26
2	21314314	252	84
2	21404870	253	43
2	21495708	254	93
2	21586464	255	57
2	21677356	256	79
2	21768394	257	36
2	21859999	258	62
2	21950979	259	56
2	22041910	260	55
2	22132807	261	77
2	22223696	262	75
2	22314250	263	41
2	22405467	264	128
2	22495001	265	37
2	22586231	266	84
2	22676673	267	56
2	22767369	268	47
2	22858308	269	83
2	22948840	270	87
2	23039561	271	85
2	23129291	272	55
2	23220619	273	141
2	23310559	274	77
2	23400442	275	58
2	23491079	276	49
2	23581771	277	70
2	23672757	278	59
2	23763851	279	64
2	23854458	280	62
2	23945687	281	155
2	24034938	282	31
2	24126376	283	65
2	24217303	284	67
2	24308143	285	85
2	24398418	286	62
2	24489628	287	47
2	24580604	288	43
2	24671981	289	52
2	24762921	290	95
2	24853174	291	27
2	24945055	292	105
2	25035526	293	84
2	25125767	294	57
2	25215330	295	63
2	25306412	296	67
2	25396861	297	91
2	25486426	298	50
2	25576846	299	42
2	25668372	300	67
2	25759013	301	105
2	25849107	302	49
2	25939981	303	61
2	26030822	304	52
2	26122169	305	78
2	26212065	306	100
2	26302614	307	142
2	26391251	308	59
2	26481404	309	70
2	26572667	310	45
2	26663739	311	62
2	26754472	312	48
2	26845425	313	52
2	26936404	314	83
2	27027002	315	65
2	27117939	316	96
2	27208013	317	42
2	27299500	318	110
2	27389834	319	89
2	27479963	320	72
2	27570254	321	12
2	27661805	322	93
2	27751924	323	69
2	27842784	324	36
2	27934092	325	47
2	28025225	326	158
2	28114333	327	58
2	28204370	328	74
2	28294981	329	41
2	28386079	330	83
2	28476498	331	53
2	28567374	332	122
2	28656645	333	68
2	28747280	334	40
2	28838066	335	69
2	28928737	336	91
2	29019170	337	70
2	29109581	338	65
2	29200659	339	48
2	29291516	340	154
2	29379815	341	36
2	29471415	342	123
2	29561410	343	56
2	29652395	344	84
2	29743240	345	111
2	29833298	346	59
2	29924110	347	26
2	30015359	348	63
2	30106284	349	54
2	30197492	350	85
2	30287950	351	59
2	30379074	352	125
2	30469470	353	40
2	30560371	354	65
2	30651424	355	47
2	30742903	356	166
2	30831924	357	51
2	30922360	358	33
2	31013633	359	41
2	31104760	360	83
2	31194747	361	56
2	31285095	362	115
2	31374921	363	122