version 2
run PerfectCC-2-20100909-02:40:33-3836
attr configname PerfectCC
attr datetime 20100909-02:40:33
attr experiment PerfectCC
attr inifile D:/Developement/Oversim2/multic/simulations/omnetpp.ini
attr iterationvars $nhops=4
attr iterationvars2 "$nhops=4, $repetition=0"
attr measurement $nhops=4
attr network oversim.underlay.simpleunderlay.SimpleUnderlayNetwork
attr nhops 4
attr processid 3836
attr repetition 0
attr replication #0
attr resultdir results
attr runnumber 2
attr seedset 2

vector 1  SimpleUnderlayNetwork.globalObserver.globalStatistics  incoming_bytes  ETV
vector 2  SimpleUnderlayNetwork.globalObserver.globalStatistics  drops  ETV
vector 3  SimpleUnderlayNetwork.globalObserver.globalStatistics  delayed_acks  ETV
vector 4  SimpleUnderlayNetwork.globalObserver.globalStatistics  rate  ETV
vector 5  SimpleUnderlayNetwork.globalObserver.globalStatistics  timetotimeouts  ETV
vector 6  SimpleUnderlayNetwork.globalObserver.globalStatistics  "GlobalNodeList: Number of nodes"  ETV
vector 7  SimpleUnderlayNetwork.globalObserver.globalStatistics  "GlobalNodeList: Number of bootstrapped malicious nodes"  ETV
1	66713	19	40015
1	117566	20	3286
1	195719	21	66091
1	271508	22	61109
1	350403	23	63229
1	428860	24	63070
1	507825	25	63653
1	587382	26	65561
1	667537	27	66515
1	747129	28	65243
1	826254	29	64713
1	905383	30	64395
1	985227	31	65932
1	1064879	32	65031
1	1144862	33	66144
1	1225639	34	67734
1	1305756	35	65455
1	1385561	36	66038
1	1465507	37	65614
1	1544524	38	63547
1	1623862	39	65614
1	1704205	40	66462
1	1783198	41	64660
1	1862358	42	64342
1	1940806	43	63017
1	2019587	44	63547
1	2096957	45	61904
1	2174322	46	61480
1	2252930	47	63494
1	2331186	48	62911
1	2410505	49	65243
1	2488551	50	62805
1	2568367	51	65508
1	2648636	52	66409
1	2727922	53	64660
1	2807048	54	64183
1	2885663	55	63547
1	2965531	56	65932
1	3044335	57	63388
1	3123430	58	65137
1	3203454	59	66197
1	3283128	60	64819
1	3361739	61	63388
1	3441419	62	65985
1	3521018	63	64925
1	3599042	64	62434
1	3678333	65	64819
1	3756762	66	64024
1	3836197	67	65137
1	3915178	68	63971
1	3995138	69	65614
1	4074912	70	65879
1	4153886	71	64130
1	4232539	72	63229
1	4311456	73	64077
1	4389462	74	62646
1	4468364	75	64713
1	4547416	76	64236
1	4626613	77	64501
1	4705538	78	64077
1	4783261	79	61851
1	4862150	80	65084
1	4940940	81	63547
1	5020327	82	65349
1	5099976	83	65349
1	5179016	84	64554
1	5259112	85	66197
1	5337824	86	63441
1	5415842	87	62275
1	5494021	88	62646
1	5572394	89	63494
1	5650920	90	64130
1	5729366	91	62911
1	5807742	92	63547
1	5886500	93	64289
1	5965899	94	65190
1	6045938	95	66303
1	6123967	96	61851
1	6202676	97	64077
1	6282061	98	65349
1	6361578	99	65084
1	6440176	100	63494
1	6520357	101	66515
1	6599395	102	64395
1	6678437	103	64130
1	6756846	104	63017
1	6836499	105	65614
1	6915171	106	64289
1	6994750	107	64872
1	7072361	108	61480
1	7151561	109	64607
1	7229792	110	62858
1	7308406	111	63971
1	7386807	112	63017
1	7465546	113	64183
1	7544637	114	65349
1	7622484	115	61639
1	7702116	116	65349
1	7781223	117	64660
1	7859857	118	63653
1	7938989	119	64289
1	8017292	120	63918
1	8097679	121	66674
1	8176337	122	62275
1	8254786	123	64077
1	8334486	124	65349
1	8414088	125	65455
1	8493512	126	64872
1	8572991	127	65561
1	8652386	128	64607
1	8730553	129	63070
1	8809294	130	63547
1	8887594	131	63388
1	8966302	132	63547
1	9044686	133	63706
1	9122698	134	62328
1	9201753	135	65190
1	9279754	136	61586
1	9357879	137	62699
1	9436302	138	63653
1	9515102	139	64289
1	9593811	140	64024
1	9672778	141	64448
1	9751020	142	62805
1	9828988	143	62593
1	9908849	144	65879
1	9987697	145	64342
1	10067642	146	65667
1	10146512	147	63653
1	10225849	148	65402
1	10305098	149	64766
1	10385397	150	66515
1	10464923	151	65243
1	10543223	152	62275
1	10622049	153	64342
1	10701217	154	65137
1	10780727	155	65137
1	10859998	156	64819
1	10940083	157	66303
1	11019090	158	63918
1	11098602	159	64978
1	11177623	160	64130
1	11257250	161	65349
1	11336660	162	65932
1	11416946	163	65879
1	11496257	164	65349
1	11575753	165	64713
1	11654952	166	64395
1	11734653	167	65720
1	11814230	168	65773
1	11893537	169	64554
1	11972437	170	63494
1	12051681	171	65137
1	12130515	172	64342
1	12209828	173	64819
1	12288114	174	62911
1	12366891	175	64024
1	12446563	176	65190
1	12524275	177	61957
1	12603677	178	65720
1	12683053	179	64925
1	12762647	180	64872
1	12841608	181	64554
1	12920918	182	65190
1	13000157	183	64713
1	13078926	184	63600
1	13157990	185	64289
1	13236598	186	63441
1	13315766	187	65349
1	13394622	188	63706
1	13473058	189	63335
1	13550766	190	62275
1	13630782	191	65879
1	13709543	192	64395
1	13788953	193	64660
1	13867981	194	64448
1	13946480	195	62964
1	14025558	196	64236
1	14104287	197	64448
1	14184021	198	65614
1	14263489	199	64819
1	14342588	200	64925
1	14422312	201	65614
1	14501874	202	64713
1	14581926	203	66462
1	14660938	204	64077
1	14739925	205	64660
1	14819750	206	65243
1	14899318	207	65031
1	14979497	208	66568
1	15058356	209	63176
1	15137314	210	64713
1	15215112	211	62010
1	15293281	212	62911
1	15372075	213	64395
1	15450999	214	65084
1	15531168	215	65614
1	15609108	216	61745
1	15687811	217	64448
1	15765491	218	61586
1	15845121	219	66515
1	15923904	220	63176
1	16004092	221	66250
1	16082406	222	63388
1	16162350	223	65773
1	16239807	224	61533
1	16318995	225	64342
1	16396417	226	61533
1	16476457	227	66568
1	16556034	228	64872
1	16635453	229	64872
1	16713269	230	61692
1	16792201	231	65190
1	16872511	232	66515
1	16951139	233	63176
1	17029279	234	63865
1	17107753	235	62752
1	17187341	236	65667
1	17264877	237	61321
1	17343493	238	63600
1	17423458	239	66356
1	17503048	240	65190
1	17581441	241	62964
1	17661122	242	65296
1	17739844	243	64395
1	17819032	244	64395
1	17897620	245	63176
1	17976692	246	64183
1	18054506	247	62275
1	18133771	248	65243
1	18212872	249	64289
1	18292736	250	66091
1	18371908	251	63971
1	18451676	252	66038
1	18531963	253	66462
1	18610335	254	62752
1	18690034	255	65614
1	18770368	256	66992
1	18849108	257	63494
1	18929056	258	66250
1	19008603	259	65190
1	19088744	260	66727
1	19169156	261	66568
1	19248771	262	66038
1	19329098	263	65826
1	19407232	264	61745
1	19487124	265	66515
1	19565459	266	62805
1	19644580	267	64289
1	19722569	268	62540
1	19801033	269	63653
1	19880507	270	65720
1	19958327	271	61056
1	20036759	272	63494
1	20115585	273	63971
1	20195154	274	65826
1	20274906	275	66091
1	20354633	276	65190
1	20433120	277	62434
1	20512259	278	64819
1	20590738	279	63600
1	20669764	280	64660
1	20747245	281	61480
1	20825958	282	63759
1	20904919	283	64024
1	20983163	284	62858
1	21062567	285	65773
1	21142037	286	64872
1	21220580	287	63070
1	21298153	288	61851
1	21377778	289	65773
1	21456264	290	63282
1	21535960	291	65826
1	21614541	292	63070
1	21693638	293	64925
1	21772227	294	63547
1	21850972	295	63812
1	21929748	296	63653
1	22008263	297	63759
1	22086522	298	63229
1	22166275	299	65296
1	22246059	300	65773
1	22324908	301	63865
1	22404763	302	65932
1	22484445	303	65031
1	22563313	304	64713
1	22643283	305	65826
1	22722300	306	64554
1	22801817	307	65402
1	22879759	308	61427
1	22958540	309	64448
1	23038206	310	66197
1	23117160	311	63282
1	23196156	312	64660
1	23275570	313	65296
1	23355408	314	66038
1	23434670	315	63706
1	23513562	316	64554
1	23593344	317	65455
1	23673384	318	67098
1	23752310	319	62487
1	23830962	320	63971
1	23910279	321	64395
1	23989889	322	66091
1	24070118	323	65614
1	24148787	324	63653
1	24228644	325	66250
1	24308062	326	63971
1	24387517	327	64660
1	24464847	328	61692
1	24544462	329	66250
1	24624102	330	65190
1	24702404	331	62063
1	24781425	332	65296
1	24862151	333	67416
1	24941409	334	64554
1	25020802	335	64554
1	25100141	336	65561
1	25179569	337	65084
1	25257694	338	62169
1	25337348	339	66144
1	25416864	340	64501
1	25494622	341	62010
1	25573417	342	64554
1	25653245	343	65614
1	25731966	344	63918
1	25812400	345	66568
1	25891664	346	64289
1	25971620	347	66356
1	26049644	348	61692
1	26128796	349	64978
1	26208718	350	66462
1	26288190	351	64607
1	26365521	352	61003
1	26445012	353	65773
1	26523893	354	64024
1	26603581	355	65614
1	26681393	356	62010
1	26758759	357	61003
1	26837118	358	63759
1	26915705	359	63759
1	26993611	360	62116
1	27071895	361	63706
1	27151195	362	65031
1	27230021	363	64024
1	27308910	364	64448
1	27387604	365	63759
1	27467081	366	65349
1	27546008	367	64236
1	27625377	368	65296
1	27705024	369	65349
1	27783681	370	63706
1	27862718	371	64077
1	27941816	372	65243
1	28021520	373	65349
1	28099040	374	61639
1	28177333	375	63070
1	28254878	376	62063
1	28333002	377	63229
1	28411120	378	62328
1	28488660	379	61639
1	28565343	380	60791
1	28642900	381	62275
1	28721065	382	63123
1	28798476	383	61321
1	28876957	384	63812
1	28954219	385	61162
1	29032350	386	62805
1	29109525	387	61374
1	29187241	388	62328
1	29264793	389	61798
1	29342863	390	63176
1	29420555	391	62063
1	29498668	392	62964
1	29576497	393	62328
1	29654418	394	62699
1	29732223	395	62063
1	29809691	396	61904
1	29887338	397	62434
1	29965178	398	62063
1	30042972	399	62434
1	30120497	400	62010
1	30197928	401	62010
1	30275468	402	61745
1	30352493	403	61268
1	30430591	404	62540
1	30507872	405	61798
1	30585687	406	62116
1	30663949	407	63600
1	30742102	408	62699
1	30819986	409	62381
1	30898036	410	62858
1	30975265	411	61692
1	31052746	412	61480
1	31130551	413	62593
1	31208167	414	61904
1	31286144	415	63017
1	31364060	416	62010
1	31442269	417	63282
1	31520458	418	63653
1	31599125	419	63388
1	31676562	420	61533
1	31754667	421	63176
1	31832757	422	62805
1	31910693	423	62646
1	31988502	424	62116
1	32067149	425	64395
1	32144847	426	61427
1	32223149	427	63653
1	32300773	428	61851
1	32378753	429	62911
1	32456861	430	62752
1	32534860	431	62593
1	32613257	432	63653
1	32691040	433	62275
1	32769029	434	62752
1	32847295	435	63229
1	32925880	436	63971
1	33003591	437	62010
1	33082711	438	64501
1	33160709	439	62646
1	33239409	440	64024
1	33316715	441	61162
1	33394819	442	63229
1	33472911	443	63070
1	33551195	444	63282
1	33629843	445	63600
1	33707817	446	62911
1	33786205	447	63547
1	33864539	448	62805
1	33942580	449	62699
1	34020163	450	62328
1	34098266	451	62434
1	34176262	452	62911
1	34254267	453	63176
1	34331978	454	61586
1	34409526	455	62010
1	34487902	456	63388
1	34565616	457	62116
1	34643359	458	62010
1	34721910	459	64607
1	34800127	460	62699
1	34878126	461	62805
1	34955901	462	62434
1	35033167	463	60844
1	35110825	464	62275
1	35188180	465	61215
1	35265556	466	61798
1	35343288	467	62169
1	35421317	468	63017
1	35498892	469	62063
1	35577162	470	63335
1	35655017	471	62699
1	35732734	472	62169
1	35810726	473	62222
1	35888266	474	62646
1	35966570	475	63123
1	36044236	476	62169
1	36122282	477	62752
1	36200269	478	62434
1	36278739	479	63600
1	36356651	480	62752
1	36435174	481	63388
1	36512791	482	62010
1	36591205	483	63706
1	36668857	484	62275
1	36747537	485	63600
1	36825051	486	61427
1	36903080	487	63388
1	36981878	488	63653
1	37060228	489	63282
1	37139010	490	64395
1	37217600	491	63865
1	37295211	492	61798
1	37374089	493	64289
1	37452583	494	63812
1	37530600	495	62116
1	37609265	496	63918
1	37686495	497	61321
1	37765339	498	64395
1	37843392	499	62381
1	37921378	500	62858
1	37999558	501	63070
1	38078390	502	64077
1	38156895	503	63600
1	38235652	504	64130
1	38313770	505	62487
1	38392468	506	64501
1	38470946	507	63070
1	38548962	508	62646
1	38627355	509	63176
1	38705340	510	62858
1	38783745	511	63388
1	38862186	512	63547
1	38940620	513	64077
1	39019212	514	63547
1	39097381	515	62699
1	39175292	516	62699
1	39252719	517	61851
1	39330981	518	63070
1	39409136	519	62964
1	39486871	520	62010
1	39565554	521	64024
1	39643373	522	62116
1	39721064	523	62381
1	39799030	524	62487
1	39876822	525	63017
1	39954657	526	62222
1	40032641	527	62646
1	40110474	528	62646
1	40188823	529	63282
1	40266879	530	62275
1	40344490	531	62434
1	40422802	532	63229
1	40500593	533	62540
1	40578501	534	62964
1	40657060	535	63388
1	40735115	536	62540
1	40813177	537	63176
1	40891388	538	63282
1	40969646	539	62911
1	41047946	540	63441
1	41126741	541	64236
1	41205127	542	63123
1	41283131	543	62222
1	41360959	544	62434
1	41439325	545	63441
1	41517534	546	63123
1	41596387	547	64342
1	41674029	548	61957
1	41752309	549	63282
1	41830079	550	62805
1	41908486	551	63441
1	41986159	552	61798
1	42064608	553	63547
1	42141912	554	61215
1	42219999	555	62911
1	42297966	556	62752
1	42376112	557	63441
1	42454512	558	63229
1	42532600	559	62911
1	42610526	560	62646
1	42689116	561	63918
1	42766885	562	61851
1	42844903	563	62805
1	42922183	564	61268
1	43000025	565	62911
1	43078060	566	62805
1	43155428	567	61215
1	43233468	568	63123
1	43310994	569	61798
1	43389151	570	62434
1	43468030	571	64872
1	43547063	572	64448
1	43625650	573	63600
1	43703996	574	63176
1	43781536	575	62169
1	43859801	576	62805
1	43937482	577	62434
1	44014612	578	60950
1	44092724	579	62752
1	44170436	580	62381
1	44248437	581	63441
1	44325892	582	61692
1	44404361	583	63282
1	44482405	584	62911
1	44560232	585	62328
1	44637361	586	61268
1	44715634	587	63176
1	44793106	588	61745
1	44871226	589	62858
1	44948850	590	62275
1	45026968	591	62964
1	45104917	592	62381
1	45182725	593	62593
1	45260872	594	63494
1	45339419	595	63441
1	45417291	596	62593
1	45494881	597	62010
1	45572433	598	62328
1	45650150	599	62063
1	45728361	600	63229
1	45806286	601	62593
1	45883831	602	61851
1	45961442	603	62010
1	46039430	604	62540
1	46117308	605	62593
1	46194815	606	61904
1	46272518	607	62328
1	46349961	608	61745
1	46427630	609	62487
1	46505512	610	62169
1	46583447	611	62752
1	46661113	612	62010
1	46739353	613	63282
1	46817188	614	62434
1	46895280	615	63017
1	46973294	616	62911
1	47051073	617	61957
1	47129119	618	62487
1	47206455	619	61692
1	47284629	620	63388
1	47362142	621	61745
1	47440215	622	63123
1	47518144	623	62487
1	47596062	624	62805
1	47674484	625	63282
1	47752139	626	61692
1	47829896	627	62964
1	47908447	628	63600
1	47986012	629	61851
1	48063631	630	62222
1	48141381	631	61692
1	48219109	632	62752
1	48297462	633	63282
1	48375809	634	63547
1	48454043	635	62964
1	48531882	636	62328
1	48609766	637	62540
1	48687477	638	62593
1	48765281	639	62010
1	48842969	640	62328
1	48920608	641	62169
1	48999007	642	63547
1	49077571	643	63706
1	49156111	644	63653
1	49234683	645	63653
1	49313832	646	64872
1	49391706	647	62275
1	49469931	648	62805
1	49547258	649	61321
1	49625181	650	63123
1	49703542	651	63653
1	49781220	652	61904
1	49859610	653	63547
1	49937896	654	63388
1	50016669	655	63918
1	50094291	656	61745
1	50172638	657	63918
1	50250780	658	62381
1	50329138	659	63600
1	50407032	660	62487
1	50486111	661	64819
1	50563918	662	62063
1	50642421	663	63653
1	50720130	664	62010
1	50798168	665	63070
1	50876685	666	63759
1	50954915	667	63017
1	51033739	668	64289
1	51110897	669	60685
1	51189289	670	63865
1	51267173	671	62275
1	51346016	672	64554
1	51424228	673	62646
1	51501685	674	61586
1	51579495	675	62805
1	51657605	676	62593
1	51736043	677	63918
1	51814607	678	63176
1	51892726	679	63017
1	51971066	680	63335
1	52049750	681	63706
1	52127772	682	62540
1	52206340	683	64130
1	52284912	684	63653
1	52364302	685	65190
1	52442709	686	63494
1	52521392	687	63865
1	52599510	688	62911
1	52677402	689	62116
1	52755964	690	63759
1	52833765	691	62487
1	52912166	692	63388
1	52990254	693	62699
1	53067547	694	61427
1	53145945	695	63865
1	53224718	696	64077
1	53303442	697	63812
1	53381321	698	62540
1	53459807	699	63441
1	53537788	700	62699
1	53615107	701	60950
1	53693471	702	64077
1	53772156	703	63600
1	53850263	704	63229
1	53928867	705	63335
1	54006532	706	62487
1	54084167	707	61904
1	54162431	708	63388
1	54239472	709	60685
1	54317959	710	63600
1	54396154	711	63123
1	54474206	712	62752
1	54552526	713	63441
1	54631067	714	63865
1	54708606	715	61639
1	54787191	716	63388
1	54865224	717	63229
1	54943647	718	63335
1	55021083	719	61639
1	55099087	720	62805
1	55177472	721	63600
1	55255762	722	63123
1	55333704	723	62222
1	55412263	724	64236
1	55490325	725	62275
1	55568272	726	62752
1	55646771	727	63812
1	55725118	728	62858
1	55803230	729	62858
1	55881643	730	63600
1	55960230	731	64077
1	56039120	732	63971
1	56117350	733	63547
1	56195991	734	63865
1	56274432	735	62911
1	56352369	736	62699
1	56430753	737	63282
1	56508761	738	63388
1	56586814	739	62010
1	56664471	740	62116
1	56742250	741	62858
1	56820314	742	62699
1	56897613	743	61533
1	56975048	744	61533
1	57052575	745	61798
1	57130269	746	62699
1	57208420	747	62699
1	57285700	748	61268
1	57363754	749	63388
1	57441965	750	63176
1	57520463	751	63229
1	57598304	752	62381
1	57676112	753	62593
1	57754638	754	63494
1	57832868	755	63123
1	57910602	756	61957
1	57988750	757	63017
1	58067249	758	63706
1	58145579	759	63812
1	58223636	760	62699
1	58301488	761	62222
1	58379700	762	63017
1	58456992	763	61533
1	58534872	764	62752
1	58613221	765	63706
1	58690986	766	61798
1	58769323	767	63335
1	58847129	768	62752
1	58925678	769	63653
1	59004164	770	63388
1	59082595	771	63759
1	59161031	772	63600
1	59239092	773	62593
1	59317641	774	63971
1	59395758	775	62434
1	59474713	776	64607
1	59552907	777	62964
1	59631370	778	63812
1	59709841	779	63176
1	59788155	780	63282
1	59866527	781	63759
1	59944765	782	62752
1	60022393	783	62169
1	60099874	784	61851
1	60177544	785	62275
1	60255747	786	63282
1	60334692	787	64501
1	60413157	788	63441
1	60491380	789	62593
1	60568461	790	61162
1	60646550	791	63388
1	60724392	792	62593
1	60801716	793	61427
1	60879889	794	62699
1	60957711	795	62646
1	61035241	796	62116
1	61114038	797	64289
1	61191850	798	61798
1	61269977	799	63335
1	61348326	800	63070
1	61426789	801	64342
1	61504945	802	62222
1	61582622	803	62487
1	61660901	804	63070
1	61738939	805	62434
1	61816755	806	62805
1	61895387	807	64236
1	61974410	808	64289
1	62051959	809	61692
1	62130565	810	64130
1	62208234	811	61480
1	62287605	812	65720
1	62366043	813	62858
1	62444259	814	63494
1	62522679	815	63335
1	62601088	816	63070
1	62679729	817	64554
1	62757976	818	62699
1	62836283	819	63335
1	62913939	820	61798
1	62991572	821	62328
1	63069413	822	62169
1	63147618	823	63229
1	63225410	824	62169
1	63303671	825	63494
1	63382526	826	64660
1	63460671	827	62487
1	63539100	828	63971
1	63617711	829	63229
1	63695701	830	62964
1	63773799	831	62911
1	63851689	832	62275
1	63929683	833	62752
1	64007730	834	62805
1	64086262	835	63653
1	64164774	836	63600
1	64242902	837	62858
1	64320626	838	62275
1	64398343	839	62487
1	64476527	840	62805
1	64554040	841	61533
1	64631981	842	63176
1	64710414	843	63388
1	64787983	844	62116
1	64866149	845	63282
1	64944131	846	62222
1	65021654	847	61692
1	65099387	848	62752
1	65177973	849	63600
1	65255859	850	62593
1	65333972	851	63070
1	65411829	852	62116
1	65489802	853	62540
1	65567875	854	63494
1	65646364	855	63229
1	65723881	856	61851
1	65802082	857	63600
1	65880748	858	63971
1	65958688	859	62328
1	66036586	860	62487
1	66114762	861	62964
1	66192124	862	61586
1	66269956	863	62752
1	66347965	864	62646
1	66426712	865	64236
1	66505191	866	63123
1	66583591	867	63494
1	66662613	868	64448
1	66740692	869	62858
1	66818884	870	63176
1	66896943	871	62593
1	66975587	872	64130
1	67053796	873	62911
1	67132196	874	63547
1	67210538	875	63335
1	67288905	876	63494
1	67367401	877	63335
1	67445309	878	62752
1	67523790	879	63335
1	67601954	880	63176
1	67679452	881	61904
1	67757217	882	62275
1	67835016	883	62699
1	67913375	884	63282
1	67991108	885	62487
1	68069567	886	63123
1	68147804	887	63282
1	68226029	888	63176
1	68304328	889	63282
1	68382927	890	63653
1	68460479	891	61745
1	68538826	892	63441
1	68616433	893	62010
1	68694782	894	63282
1	68772564	895	62487
1	68850080	896	62010
1	68927877	897	62010
1	69005477	898	62116
1	69083609	899	63229
1	69160595	900	60579
1	69238999	901	63706
1	69316531	902	61745
1	69394391	903	62381
1	69472213	904	62646
1	69550013	905	62275
1	69628254	906	63070
1	69706429	907	63282
1	69784345	908	62646
1	69862692	909	63070
1	69940827	910	63282
1	70019156	911	63494
1	70097559	912	63282
1	70175798	913	63282
1	70253672	914	62487
1	70331695	915	62646
1	70409026	916	61215
1	70486960	917	62752
1	70565374	918	63600
1	70643809	919	63706
1	70722758	920	64554
1	70800321	921	61374
1	70879035	922	64077
1	70956881	923	62752
1	71035854	924	64130
1	71114382	925	63971
1	71193175	926	64024
1	71271670	927	63229
1	71349257	928	61692
1	71427526	929	63388
1	71504903	930	61427
1	71583223	931	63600
1	71660791	932	61798
1	71739053	933	63070
1	71816907	934	62593
1	71894098	935	61427
1	71972368	936	62964
1	72049897	937	61904
1	72128017	938	62805
1	72205590	939	62063
1	72284191	940	64130
1	72361866	941	62010
1	72440132	942	63441
1	72518445	943	62858
1	72596413	944	63176
1	72674311	945	62222
1	72752478	946	62964
1	72830670	947	62964
1	72908968	948	63547
1	72987165	949	63070
1	73065675	950	63547
1	73143183	951	61533
1	73221294	952	63335
1	73299306	953	62328
1	73377047	954	62487
1	73455432	955	63176
1	73533190	956	62381
1	73611412	957	63335
1	73689244	958	62275
1	73767285	959	62805
1	73846074	960	64236
1	73923829	961	61957
1	74002217	962	63494
1	74080390	963	63229
1	74159029	964	63865
1	74237356	965	63229
1	74314685	966	61109
1	74392728	967	63017
1	74470835	968	62805
1	74548348	969	61957
1	74625746	970	61321
1	74703708	971	63282
1	74781311	972	62222
1	74859585	973	63017
1	74937754	974	62858
1	75015460	975	62222
1	75093506	976	62964
1	75171156	977	61904
1	75249277	978	63335
1	75327101	979	61745
1	75405125	980	63229
1	75482884	981	62063
1	75560907	982	62911
1	75638767	983	62222
1	75716303	984	61904
1	75793743	985	62222
1	75872249	986	63812
1	75949912	987	62010
1	76027983	988	62540
1	76106034	989	63123
1	76183798	990	61745
1	76261323	991	62169
1	76338859	992	61904
1	76417201	993	63653
1	76496096	994	64501
1	76573953	995	61692
1	76651791	996	62646
1	76729263	997	61692
1	76807315	998	62805
1	76885494	999	63176
2	66713	19	1511
2	117566	20	0
2	195719	21	121
2	271508	22	49
2	350403	23	23
2	428860	24	64
2	507825	25	22
2	587382	26	10
2	667537	27	18
2	747129	28	21
2	826254	29	32
2	905383	30	17
2	985227	31	39
2	1064879	32	16
2	1144862	33	15
2	1225639	34	27
2	1305756	35	11
2	1385561	36	25
2	1465507	37	30
2	1544524	38	13
2	1623862	39	14
2	1704205	40	50
2	1783198	41	17
2	1862358	42	21
2	1940806	43	34
2	2019587	44	60
2	2096957	45	34
2	2174322	46	20
2	2252930	47	50
2	2331186	48	15
2	2410505	49	47
2	2488551	50	17
2	2568367	51	13
2	2648636	52	43
2	2727922	53	21
2	2807048	54	33
2	2885663	55	8
2	2965531	56	64
2	3044335	57	29
2	3123430	58	29
2	3203454	59	21
2	3283128	60	32
2	3361739	61	9
2	3441419	62	22
2	3521018	63	57
2	3599042	64	23
2	3678333	65	32
2	3756762	66	13
2	3836197	67	44
2	3915178	68	17
2	3995138	69	24
2	4074912	70	40
2	4153886	71	28
2	4232539	72	16
2	4311456	73	29
2	4389462	74	21
2	4468364	75	22
2	4547416	76	36
2	4626613	77	24
2	4705538	78	32
2	4783261	79	12
2	4862150	80	25
2	4940940	81	19
2	5020327	82	20
2	5099976	83	44
2	5179016	84	13
2	5259112	85	44
2	5337824	86	24
2	5415842	87	22
2	5494021	88	26
2	5572394	89	17
2	5650920	90	19
2	5729366	91	34
2	5807742	92	19
2	5886500	93	18
2	5965899	94	5
2	6045938	95	53
2	6123967	96	19
2	6202676	97	30
2	6282061	98	19
2	6361578	99	24
2	6440176	100	12
2	6520357	101	25
2	6599395	102	22
2	6678437	103	40
2	6756846	104	14
2	6836499	105	22
2	6915171	106	19
2	6994750	107	41
2	7072361	108	8
2	7151561	109	48
2	7229792	110	10
2	7308406	111	42
2	7386807	112	19
2	7465546	113	20
2	7544637	114	59
2	7622484	115	11
2	7702116	116	23
2	7781223	117	24
2	7859857	118	28
2	7938989	119	53
2	8017292	120	10
2	8097679	121	61
2	8176337	122	33
2	8254786	123	9
2	8334486	124	22
2	8414088	125	40
2	8493512	126	12
2	8572991	127	17
2	8652386	128	35
2	8730553	129	11
2	8809294	130	37
2	8887594	131	27
2	8966302	132	20
2	9044686	133	11
2	9122698	134	25
2	9201753	135	66
2	9279754	136	15
2	9357879	137	25
2	9436302	138	14
2	9515102	139	28
2	9593811	140	20
2	9672778	141	39
2	9751020	142	37
2	9828988	143	7
2	9908849	144	28
2	9987697	145	12
2	10067642	146	40
2	10146512	147	18
2	10225849	148	19
2	10305098	149	5
2	10385397	150	27
2	10464923	151	55
2	10543223	152	15
2	10622049	153	21
2	10701217	154	22
2	10780727	155	36
2	10859998	156	17
2	10940083	157	27
2	11019090	158	37
2	11098602	159	28
2	11177623	160	20
2	11257250	161	21
2	11336660	162	21
2	11416946	163	21
2	11496257	164	36
2	11575753	165	38
2	11654952	166	12
2	11734653	167	9
2	11814230	168	11
2	11893537	169	31
2	11972437	170	28
2	12051681	171	25
2	12130515	172	12
2	12209828	173	39
2	12288114	174	29
2	12366891	175	4
2	12446563	176	54
2	12524275	177	21
2	12603677	178	26
2	12683053	179	17
2	12762647	180	28
2	12841608	181	13
2	12920918	182	28
2	13000157	183	22
2	13078926	184	37
2	13157990	185	28
2	13236598	186	26
2	13315766	187	16
2	13394622	188	22
2	13473058	189	49
2	13550766	190	9
2	13630782	191	32
2	13709543	192	15
2	13788953	193	10
2	13867981	194	54
2	13946480	195	17
2	14025558	196	43
2	14104287	197	24
2	14184021	198	33
2	14263489	199	18
2	14342588	200	27
2	14422312	201	55
2	14501874	202	12
2	14581926	203	27
2	14660938	204	29
2	14739925	205	14
2	14819750	206	34
2	14899318	207	22
2	14979497	208	54
2	15058356	209	12
2	15137314	210	38
2	15215112	211	24
2	15293281	212	24
2	15372075	213	11
2	15450999	214	29
2	15531168	215	45
2	15609108	216	17
2	15687811	217	38
2	15765491	218	9
2	15845121	219	49
2	15923904	220	12
2	16004092	221	30
2	16082406	222	15
2	16162350	223	73
2	16239807	224	31
2	16318995	225	53
2	16396417	226	8
2	16476457	227	30
2	16556034	228	30
2	16635453	229	58
2	16713269	230	9
2	16792201	231	3
2	16872511	232	30
2	16951139	233	46
2	17029279	234	49
2	17107753	235	13
2	17187341	236	68
2	17264877	237	12
2	17343493	238	16
2	17423458	239	26
2	17503048	240	51
2	17581441	241	14
2	17661122	242	34
2	17739844	243	37
2	17819032	244	44
2	17897620	245	18
2	17976692	246	71
2	18054506	247	12
2	18133771	248	46
2	18212872	249	22
2	18292736	250	45
2	18371908	251	14
2	18451676	252	12
2	18531963	253	42
2	18610335	254	15
2	18690034	255	4
2	18770368	256	35
2	18849108	257	11
2	18929056	258	24
2	19008603	259	19
2	19088744	260	14
2	19169156	261	36
2	19248771	262	24
2	19329098	263	71
2	19407232	264	9
2	19487124	265	37
2	19565459	266	30
2	19644580	267	32
2	19722569	268	48
2	19801033	269	2
2	19880507	270	73
2	19958327	271	29
2	20036759	272	10
2	20115585	273	13
2	20195154	274	22
2	20274906	275	28
2	20354633	276	40
2	20433120	277	26
2	20512259	278	15
2	20590738	279	36
2	20669764	280	76
2	20747245	281	32
2	20825958	282	11
2	20904919	283	35
2	20983163	284	9
2	21062567	285	41
2	21142037	286	28
2	21220580	287	37
2	21298153	288	24
2	21377778	289	24
2	21456264	290	20
2	21535960	291	64
2	21614541	292	5
2	21693638	293	22
2	21772227	294	49
2	21850972	295	15
2	21929748	296	22
2	22008263	297	31
2	22086522	298	21
2	22166275	299	20
2	22246059	300	38
2	22324908	301	23
2	22404763	302	25
2	22484445	303	21
2	22563313	304	17
2	22643283	305	33
2	22722300	306	10
2	22801817	307	65
2	22879759	308	25
2	22958540	309	16
2	23038206	310	30
2	23117160	311	39
2	23196156	312	35
2	23275570	313	15
2	23355408	314	40
2	23434670	315	29
2	23513562	316	26
2	23593344	317	9
2	23673384	318	94
2	23752310	319	63
2	23830962	320	32
2	23910279	321	49
2	23989889	322	30
2	24070118	323	48
2	24148787	324	6
2	24228644	325	20
2	24308062	326	38
2	24387517	327	60
2	24464847	328	11
2	24544462	329	24
2	24624102	330	36
2	24702404	331	27
2	24781425	332	11
2	24862151	333	32
2	24941409	334	24
2	25020802	335	19
2	25100141	336	35
2	25179569	337	57
2	25257694	338	7
2	25337348	339	31
2	25416864	340	58
2	25494622	341	16
2	25573417	342	21
2	25653245	343	42
2	25731966	344	12
2	25812400	345	45
2	25891664	346	20
2	25971620	347	46
2	26049644	348	34
2	26128796	349	12
2	26208718	350	26
2	26288190	351	51
2	26365521	352	14
2	26445012	353	28
2	26523893	354	15
2	26603581	355	60
2	26681393	356	69
2	26758759	357	3
2	26837118	358	26
2	26915705	359	22
2	26993611	360	26
2	27071895	361	1
2	27151195	362	21
2	27230021	363	20
2	27308910	364	14
2	27387604	365	8
2	27467081	366	14
2	27546008	367	7
2	27625377	368	12
2	27705024	369	18
2	27783681	370	19
2	27862718	371	15
2	27941816	372	1
2	28021520	373	27
2	28099040	374	13
2	28177333	375	28
2	28254878	376	23
2	28333002	377	21
2	28411120	378	16
2	28488660	379	39
2	28565343	380	6
2	28642900	381	16
2	28721065	382	38
2	28798476	383	0
2	28876957	384	36
2	28954219	385	10
2	29032350	386	27
2	29109525	387	23
2	29187241	388	23
2	29264793	389	17
2	29342863	390	20
2	29420555	391	14
2	29498668	392	25
2	29576497	393	16
2	29654418	394	18
2	29732223	395	27
2	29809691	396	16
2	29887338	397	16
2	29965178	398	13
2	30042972	399	10
2	30120497	400	24
2	30197928	401	20
2	30275468	402	57
2	30352493	403	12
2	30430591	404	26
2	30507872	405	15
2	30585687	406	17
2	30663949	407	16
2	30742102	408	26
2	30819986	409	7
2	30898036	410	27
2	30975265	411	21
2	31052746	412	12
2	31130551	413	20
2	31208167	414	24
2	31286144	415	26
2	31364060	416	9
2	31442269	417	25
2	31520458	418	8
2	31599125	419	35
2	31676562	420	5
2	31754667	421	19
2	31832757	422	16
2	31910693	423	35
2	31988502	424	7
2	32067149	425	35