version 2
run PerfectCC-3-20100909-02:54:00-1276
attr configname PerfectCC
attr datetime 20100909-02:54:00
attr experiment PerfectCC
attr inifile D:/Developement/Oversim2/multic/simulations/omnetpp.ini
attr iterationvars $nhops=5
attr iterationvars2 "$nhops=5, $repetition=0"
attr measurement $nhops=5
attr network oversim.underlay.simpleunderlay.SimpleUnderlayNetwork
attr nhops 5
attr processid 1276
attr repetition 0
attr replication #0
attr resultdir results
attr runnumber 3
attr seedset 3

vector 1  SimpleUnderlayNetwork.globalObserver.globalStatistics  incoming_bytes  ETV
vector 2  SimpleUnderlayNetwork.globalObserver.globalStatistics  drops  ETV
vector 3  SimpleUnderlayNetwork.globalObserver.globalStatistics  delayed_acks  ETV
vector 4  SimpleUnderlayNetwork.globalObserver.globalStatistics  rate  ETV
vector 5  SimpleUnderlayNetwork.globalObserver.globalStatistics  timetotimeouts  ETV
vector 6  SimpleUnderlayNetwork.globalObserver.globalStatistics  "GlobalNodeList: Number of nodes"  ETV
vector 7  SimpleUnderlayNetwork.globalObserver.globalStatistics  "GlobalNodeList: Number of bootstrapped malicious nodes"  ETV
1	30302	20	1749
1	98244	21	45421
1	164063	22	41128
1	238593	23	49343
1	316397	24	55809
1	392020	25	46587
1	468886	26	51781
1	544623	27	47859
1	623165	28	54431
1	699205	29	49131
1	777571	30	53742
1	856777	31	54007
1	934052	32	50721
1	1011956	33	53106
1	1089763	34	51145
1	1167466	35	53000
1	1244685	36	52258
1	1323253	37	52258
1	1400700	38	51463
1	1479168	39	55014
1	1556722	40	50880
1	1634068	41	51569
1	1711606	42	52258
1	1789729	43	52364
1	1867516	44	52470
1	1945905	45	53583
1	2024133	46	53848
1	2101834	47	51145
1	2177507	48	49714
1	2255773	49	53689
1	2332921	50	50403
1	2410812	51	53636
1	2487975	52	50774
1	2567029	53	54007
1	2644217	54	51410
1	2723480	55	54696
1	2801962	56	53000
1	2879737	57	52576
1	2956939	58	51092
1	3033357	59	50774
1	3110904	60	52364
1	3188090	61	50827
1	3266027	62	53477
1	3343425	63	50721
1	3420833	64	53265
1	3498438	65	51145
1	3576196	66	53053
1	3654192	67	51940
1	3731971	68	52205
1	3809546	69	51251
1	3886448	70	52417
1	3964071	71	52523
1	4042584	72	54113
1	4120497	73	52841
1	4198457	74	50986
1	4275446	75	51993
1	4353133	76	52735
1	4432686	77	53848
1	4508517	78	49396
1	4586663	79	53265
1	4664596	80	52417
1	4741763	81	50721
1	4818916	82	51463
1	4895496	83	49396
1	4971668	84	51675
1	5049340	85	51251
1	5126379	86	50933
1	5205598	87	54908
1	5283661	88	52576
1	5360717	89	52099
1	5439372	90	51728
1	5517032	91	53636
1	5595328	92	52099
1	5672842	93	53583
1	5750956	94	52523
1	5828346	95	50297
1	5905639	96	53053
1	5983850	97	53053
1	6061791	98	51357
1	6139356	99	52258
1	6217132	100	52417
1	6295520	101	52629
1	6372878	102	51251
1	6450980	103	53318
1	6528672	104	52417
1	6606692	105	52576
1	6685014	106	53106
1	6761993	107	50191
1	6839595	108	53318
1	6916806	109	51993
1	6994030	110	51622
1	7072904	111	53901
1	7150491	112	52576
1	7228327	113	51304
1	7306708	114	53530
1	7384079	115	52417
1	7463435	116	54378
1	7540781	117	50933
1	7618412	118	53159
1	7696630	119	52788
1	7774803	120	53265
1	7852760	121	52205
1	7929964	122	51410
1	8008550	123	53742
1	8086294	124	52894
1	8165473	125	54166
1	8243281	126	51304
1	8321073	127	53053
1	8399916	128	53477
1	8477637	129	53106
1	8556467	130	53636
1	8632353	131	49873
1	8711478	132	55226
1	8789489	133	51516
1	8867259	134	53530
1	8945382	135	52682
1	9022592	136	51357
1	9100279	137	52735
1	9178774	138	52311
1	9257394	139	53371
1	9335615	140	52841
1	9413549	141	51887
1	9492907	142	55597
1	9570801	143	52046
1	9649592	144	54484
1	9727677	145	52735
1	9805825	146	53477
1	9884039	147	51569
1	9960893	148	52788
1	10039365	149	53053
1	10117557	150	52735
1	10196410	151	53742
1	10274899	152	54484
1	10352221	153	51198
1	10429782	154	52470
1	10508003	155	51675
1	10585926	156	53159
1	10664151	157	52470
1	10742233	158	53212
1	10820669	159	51410
1	10898389	160	53159
1	10974773	161	49661
1	11052505	162	52841
1	11130890	163	53689
1	11209761	164	53636
1	11286999	165	52788
1	11365366	166	53371
1	11443630	167	52947
1	11520685	168	51145
1	11598471	169	52311
1	11676381	170	52629
1	11753243	171	50403
1	11830162	172	51834
1	11908560	173	52841
1	11986531	174	52629
1	12063636	175	52364
1	12142205	176	53265
1	12220236	177	52523
1	12297993	178	52682
1	12375800	179	52046
1	12453310	180	51675
1	12530840	181	52417
1	12609333	182	54219
1	12687747	183	52576
1	12764106	184	50827
1	12843025	185	53212
1	12921132	186	52735
1	12999882	187	54060
1	13078220	188	53424
1	13155968	189	53000
1	13233814	190	51198
1	13312115	191	54007
1	13390277	192	50827
1	13467503	193	51887
1	13545414	194	53053
1	13622306	195	50191
1	13700815	196	53742
1	13779136	197	53159
1	13857386	198	53265
1	13935455	199	53424
1	14014247	200	53742
1	14091956	201	51622
1	14170426	202	53689
1	14248839	203	53636
1	14327853	204	53530
1	14405084	205	52311
1	14482145	206	50827
1	14560422	207	53424
1	14638813	208	53583
1	14716901	209	52576
1	14794506	210	51728
1	14872252	211	52894
1	14950329	212	52470
1	15028833	213	52894
1	15107753	214	54378
1	15185735	215	51993
1	15262773	216	52046
1	15340843	217	53424
1	15418684	218	51622
1	15497890	219	54431
1	15574966	220	51940
1	15652876	221	53371
1	15731477	222	52576
1	15808781	223	53000
1	15888116	224	54431
1	15966560	225	52682
1	16043278	226	51251
1	16121803	227	52947
1	16198236	228	50350
1	16276724	229	54219
1	16355727	230	52682
1	16432752	231	51463
1	16510883	232	52947
1	16589249	233	53795
1	16666210	234	50774
1	16745252	235	54113
1	16822498	236	52099
1	16901117	237	52523
1	16979068	238	54749
1	17057794	239	51569
1	17136128	240	54166
1	17214546	241	54219
1	17292747	242	52629
1	17369518	243	51887
1	17448787	244	53742
1	17526439	245	51357
1	17604624	246	53583
1	17683592	247	54219
1	17762269	248	53159
1	17840066	249	52576
1	17918399	250	54166
1	17995574	251	50668
1	18073660	252	53212
1	18151383	253	52947
1	18230391	254	53689
1	18307875	255	51357
1	18386297	256	53477
1	18464321	257	52682
1	18542837	258	53000
1	18619592	259	51145
1	18697240	260	51781
1	18775349	261	53477
1	18852580	262	50986
1	18928870	263	50774
1	19007876	264	54219
1	19085897	265	52205
1	19163630	266	53265
1	19241957	267	52470
1	19320394	268	52788
1	19397857	269	52364
1	19475917	270	53265
1	19554886	271	53477
1	19632667	272	51410
1	19711212	273	53742
1	19789842	274	53106
1	19867742	275	53795
1	19945604	276	52099
1	20023689	277	53689
1	20103361	278	54007
1	20180677	279	51463
1	20259089	280	53583
1	20336349	281	51675
1	20414380	282	53106
1	20491885	283	51463
1	20570730	284	53530
1	20648383	285	51251
1	20726818	286	53742
1	20805962	287	55385
1	20882872	288	49449
1	20960607	289	52576
1	21038161	290	50986
1	21115330	291	53106
1	21193864	292	52682
1	21272915	293	54060
1	21350892	294	52894
1	21429069	295	52629
1	21507715	296	53742
1	21585900	297	53742
1	21665235	298	53901
1	21742485	299	52152
1	21819597	300	51516
1	21898648	301	54060
1	21976369	302	52099
1	22055083	303	53212
1	22131942	304	51410
1	22210873	305	53795
1	22288920	306	52894
1	22366233	307	51940
1	22444805	308	53424
1	22521689	309	51092
1	22601065	310	53583
1	22678911	311	52364
1	22756156	312	52523
1	22834369	313	53159
1	22912898	314	53530
1	22989446	315	50138
1	23069194	316	55809
1	23147613	317	52576
1	23225943	318	54378
1	23304673	319	53848
1	23382310	320	51622
1	23460384	321	53265
1	23538717	322	53212
1	23616267	323	51251
1	23694646	324	53742
1	23773054	325	53106
1	23851584	326	53318
1	23929173	327	51728
1	24006970	328	52841
1	24084978	329	52470
1	24162513	330	51940
1	24240923	331	52576
1	24319961	332	55279
1	24397534	333	51887
1	24475207	334	53106
1	24553955	335	52311
1	24632083	336	53212
1	24709086	337	51304
1	24788002	338	54431
1	24866585	339	52258
1	24944412	340	53318
1	25023415	341	52629
1	25102150	342	53583
1	25179281	343	50880
1	25257733	344	53795
1	25335218	345	53159
1	25413700	346	53583
1	25491584	347	51357
1	25569354	348	53742
1	25647623	349	51781
1	25725889	350	53954
1	25804497	351	52894
1	25881621	352	51993
1	25960513	353	54643
1	26037541	354	50827
1	26117255	355	55173
1	26194651	356	49714
1	26273022	357	54537
1	26351282	358	52311
1	26428866	359	52470
1	26507917	360	52788
1	26585067	361	52894
1	26663732	362	53477
1	26742187	363	52841
1	26819478	364	52523
1	26897785	365	52364
1	26974413	366	51039
1	27052410	367	53636
1	27130915	368	52788
1	27209153	369	54060
1	27288279	370	53053
1	27366272	371	51993
1	27444600	372	52735
1	27523399	373	53477
1	27601262	374	52152
1	27680974	375	57293
1	27757529	376	49237
1	27836412	377	54855
1	27914888	378	52682
1	27993485	379	54431
1	28071861	380	52947
1	28150147	381	53636
1	28229407	382	54378
1	28307197	383	52629
1	28385836	384	53212
1	28463094	385	52364
1	28542313	386	53053
1	28618624	387	51410
1	28697529	388	54378
1	28775914	389	52258
1	28853111	390	51728
1	28932903	391	55544
1	29009689	392	49449
1	29086803	393	51251
1	29165007	394	53636
1	29243203	395	52470
1	29322403	396	55120
1	29399924	397	51357
1	29478783	398	55120
1	29556481	399	50880
1	29635842	400	55438
1	29713946	401	52629
1	29792708	402	54113
1	29870776	403	52364
1	29948622	404	53742
1	30027726	405	53477
1	30104371	406	50244
1	30181540	407	51410
1	30260639	408	54325
1	30338805	409	52470
1	30416053	410	50562
1	30493801	411	54325
1	30572342	412	53106
1	30651158	413	54007
1	30728918	414	51940
1	30807396	415	54325
1	30886854	416	53371
1	30964643	417	53265
1	31043062	418	54537
1	31121780	419	51251
1	31200407	420	54696
1	31278924	421	53159
1	31357096	422	52523
1	31434596	423	51198
1	31512128	424	53053
1	31590940	425	51728
1	31670395	426	56392
1	31748129	427	51834
1	31824868	428	51145
1	31904088	429	54696
1	31982803	430	53265
1	32061550	431	54484
1	32139152	432	51622
1	32217895	433	53848
1	32296639	434	52470
1	32375092	435	54802
1	32453095	436	52152
1	32531986	437	54643
1	32609882	438	52258
1	32686429	439	50509
1	32765582	440	53795
1	32843750	441	53318
1	32921742	442	52417
1	33000142	443	53477
1	33078217	444	52258
1	33156713	445	53000
1	33235067	446	54060
1	33313370	447	52788
1	33391794	448	52258
1	33470370	449	54643
1	33548710	450	52311
1	33627207	451	54590
1	33706657	452	54908
1	33784528	453	52682
1	33861820	454	52417
1	33940844	455	53212
1	34018523	456	52682
1	34096139	457	52099
1	34174646	458	53000
1	34253315	459	53477
1	34331883	460	53901
1	34409708	461	53212
1	34487956	462	51781
1	34565352	463	52152
1	34643202	464	52576
1	34722228	465	53689
1	34800186	466	53265
1	34878388	467	52947
1	34956242	468	51993
1	35034597	469	53848
1	35112296	470	51675
1	35190459	471	53742
1	35269243	472	53371
1	35346815	473	52046
1	35425850	474	53742
1	35503506	475	51622
1	35582502	476	54537
1	35657675	477	47806
1	35736682	478	54749
1	35814597	479	52682
1	35893119	480	53053
1	35970314	481	51145
1	36047439	482	51463
1	36126182	483	53742
1	36203929	484	51887
1	36282146	485	54325
1	36360419	486	52629
1	36438421	487	53583
1	36516149	488	51622
1	36593948	489	52311
1	36671618	490	51251
1	36749776	491	54325
1	36827358	492	50721
1	36905123	493	53265
1	36983091	494	52311
1	37060287	495	51569
1	37138800	496	53901
1	37217766	497	54537
1	37295566	498	51675
1	37373599	499	52947
1	37452077	500	52841
1	37530882	501	55226
1	37608455	502	51039
1	37686488	503	52947
1	37764559	504	51940
1	37842535	505	52205
1	37919962	506	52735
1	37998600	507	53954
1	38077255	508	52629
1	38155911	509	54484
1	38233693	510	52788
1	38311278	511	52576
1	38390234	512	52470
1	38467316	513	51410
1	38545598	514	53318
1	38624060	515	53689
1	38701836	516	51622
1	38779469	517	52894
1	38857848	518	52205
1	38935755	519	53742
1	39013932	520	51569
1	39091594	521	52417
1	39168961	522	51251
1	39247525	523	54484
1	39325935	524	51887
1	39401984	525	50456
1	39479975	526	53954
1	39558197	527	51516
1	39636872	528	54166
1	39713524	529	50880
1	39791949	530	53371
1	39868725	531	50403
1	39946533	532	52576
1	40024536	533	52364
1	40101804	534	51198
1	40179788	535	51887
1	40258420	536	54537
1	40336770	537	53795
1	40413843	538	51304
1	40492791	539	54643
1	40570546	540	50827
1	40647854	541	52258
1	40726156	542	53901
1	40804825	543	53000
1	40883140	544	52894
1	40960906	545	52152
1	41039612	546	54961
1	41118121	547	52576
1	41197080	548	54590
1	41275258	549	52629
1	41353760	550	53954
1	41432713	551	53424
1	41510265	552	52364
1	41588553	553	52629
1	41667381	554	54643
1	41743856	555	49025
1	41822604	556	55862
1	41900445	557	50880
1	41978864	558	54325
1	42057411	559	53000
1	42135904	560	53424
1	42214595	561	52947
1	42292123	562	52947
1	42369360	563	50721
1	42447443	564	53212
1	42525945	565	52364
1	42603912	566	53159
1	42681913	567	52152
1	42760182	568	53424
1	42837746	569	52470
1	42915962	570	52311
1	42992480	571	49873
1	43070204	572	52576
1	43146461	573	49873
1	43225435	574	54166
1	43302917	575	51251
1	43380529	576	52099
1	43459179	577	54113
1	43535062	578	49979
1	43613092	579	52947
1	43691976	580	53424
1	43768334	581	50350
1	43846955	582	53583
1	43924605	583	52788
1	44002700	584	52046
1	44081319	585	53212
1	44159291	586	53106
1	44237378	587	52258
1	44314225	588	51516
1	44391818	589	52629
1	44469504	590	51675
1	44547936	591	53424
1	44625336	592	51728
1	44703762	593	53848
1	44781330	594	52576
1	44858744	595	51357
1	44936898	596	52682
1	45014721	597	52576
1	45093840	598	54643
1	45172483	599	53106
1	45249459	600	51039
1	45327985	601	54325
1	45406585	602	52099
1	45483800	603	52576
1	45562135	604	53795
1	45640922	605	53212
1	45719437	606	54007
1	45796901	607	51198
1	45875869	608	53530
1	45953418	609	51993
1	46031781	610	54484
1	46109515	611	51304
1	46187589	612	53530
1	46265402	613	51675
1	46343653	614	53636
1	46421298	615	51622
1	46499730	616	52629
1	46577198	617	50986
1	46655458	618	54590
1	46732186	619	49820
1	46811151	620	54431
1	46887117	621	47859
1	46964585	622	53848
1	47042548	623	52046
1	47119595	624	50403
1	47197533	625	53053
1	47275613	626	53583
1	47353521	627	52311
1	47431616	628	50509
1	47509485	629	53371
1	47588114	630	54060
1	47664944	631	50032
1	47743313	632	54696
1	47822728	633	55279
1	47900369	634	51410
1	47978820	635	53371
1	48057586	636	53530
1	48135297	637	52205
1	48214358	638	53901
1	48292047	639	52417
1	48371258	640	54378
1	48448765	641	50721
1	48526139	642	52046
1	48604676	643	53265
1	48683057	644	53742
1	48761651	645	52682
1	48840099	646	53477
1	48918527	647	54060
1	48997610	648	54802
1	49075744	649	52788
1	49154032	650	52311
1	49232137	651	52205
1	49310956	652	55067
1	49390007	653	54272
1	49467722	654	51145
1	49545876	655	52947
1	49624351	656	53318
1	49702760	657	53636
1	49781352	658	53159
1	49859269	659	52682
1	49937805	660	54219
1	50015052	661	49820
1	50092850	662	53424
1	50171744	663	53000
1	50249499	664	52629
1	50328558	665	54749
1	50405713	666	49873
1	50484031	667	53795
1	50563075	668	54325
1	50641599	669	54749
1	50720124	670	52576
1	50798566	671	53212
1	50877358	672	53636
1	50955736	673	53636
1	51034629	674	54908
1	51112471	675	51834
1	51190727	676	52576
1	51268693	677	52258
1	51346154	678	51569
1	51425005	679	54802
1	51502708	680	52682
1	51581728	681	53795
1	51660157	682	53318
1	51738665	683	53477
1	51816200	684	52470
1	51895088	685	53583
1	51973309	686	52682
1	52051581	687	52841
1	52129959	688	53159
1	52207926	689	53689
1	52286461	690	53053
1	52363715	691	50774
1	52442562	692	53583
1	52519874	693	52841
1	52599441	694	54855
1	52676715	695	50933
1	52754313	696	51887
1	52832335	697	53371
1	52910449	698	52470
1	52988440	699	52682
1	53067344	700	54696
1	53145450	701	52099
1	53223419	702	53583
1	53302948	703	55067
1	53380571	704	51940
1	53458894	705	53742
1	53537170	706	52364
1	53615512	707	54537
1	53694078	708	52417
1	53772941	709	54908
1	53850626	710	50668
1	53928497	711	53583
1	54007342	712	53424
1	54084874	713	51039
1	54163164	714	53583
1	54240406	715	51198
1	54318393	716	53318
1	54396675	717	52735
1	54475024	718	53159
1	54552097	719	50721
1	54629594	720	52311
1	54708285	721	53795
1	54785191	722	50509
1	54863778	723	53583
1	54942073	724	53000
1	55020318	725	53530
1	55098371	726	52788
1	55177226	727	53530
1	55255766	728	52947
1	55333610	729	52629
1	55412101	730	52841
1	55490390	731	53583
1	55569166	732	53636
1	55646351	733	51569
1	55725059	734	53954
1	55803646	735	52841
1	55881236	736	52682
1	55959810	737	53477
1	56037941	738	51463
1	56117383	739	55332
1	56194789	740	51357
1	56272915	741	54484
1	56350926	742	50615
1	56429924	743	54855
1	56508224	744	53159
1	56586313	745	52311
1	56664593	746	54272
1	56742967	747	51357
1	56821041	748	54272
1	56898734	749	51039
1	56976943	750	53689
1	57055860	751	53636
1	57133967	752	53795
1	57212904	753	54007
1	57291085	754	52470
1	57368572	755	51622
1	57446669	756	52894
1	57524854	757	52788
1	57602988	758	53106
1	57681328	759	52205
1	57760041	760	54749
1	57836973	761	50191
1	57915602	762	54378
1	57993502	763	51622
1	58072242	764	55067
1	58150338	765	50880
1	58228683	766	53424
1	58306940	767	54219
1	58384479	768	50403
1	58461874	769	52311
1	58539854	770	52311
1	58618220	771	53530
1	58696675	772	53477
1	58775053	773	52576
1	58851864	774	51728
1	58929703	775	51940
1	59008113	776	53689
1	59086373	777	51622
1	59165415	778	55120
1	59242363	779	50138
1	59320412	780	53583
1	59398621	781	53212
1	59476037	782	50562
1	59553817	783	53000
1	59631962	784	51198
1	59710107	785	54113
1	59787194	786	50721
1	59866170	787	54961
1	59944188	788	52099
1	60022653	789	53742
1	60101256	790	52894
1	60178619	791	52788
1	60256298	792	51410
1	60335000	793	53636
1	60413028	794	52417
1	60490897	795	53159
1	60568403	796	52788
1	60648000	797	54590
1	60723973	798	48283
1	60802314	799	55120
1	60880305	800	50668
1	60958315	801	54431
1	61034203	802	47965
1	61113071	803	54643
1	61191537	804	53742
1	61268831	805	50933
1	61346409	806	52629
1	61424127	807	52046
1	61501042	808	50403
1	61579532	809	53212
1	61658129	810	53424
1	61737157	811	56286
1	61813747	812	49608
1	61892915	813	54908
1	61969466	814	49926
1	62048191	815	54113
1	62126481	816	52576
1	62204882	817	53159
1	62283349	818	53583
1	62361187	819	52205
1	62438343	820	52788
1	62517650	821	54007
1	62596207	822	52311
1	62674346	823	53371
1	62752410	824	52205
1	62831411	825	54749
1	62908509	826	51198
1	62986782	827	53636
1	63065497	828	53530
1	63142747	829	51728
1	63220668	830	52046
1	63298237	831	50933
1	63376326	832	53053
1	63452911	833	49449
1	63530570	834	52311
1	63607181	835	50297
1	63684647	836	52364
1	63763273	837	54272
1	63839980	838	51993
1	63917955	839	50933
1	63995355	840	51569
1	64073953	841	54749
1	64152700	842	54166
1	64230852	843	51993
1	64310191	844	54219
1	64387406	845	51728
1	64465617	846	53212
1	64544882	847	54908
1	64621453	848	50032
1	64699916	849	54431
1	64778511	850	52894
1	64856195	851	52576
1	64935321	852	54643
1	65013728	853	52417
1	65091449	854	52099
1	65170131	855	52735
1	65247162	856	51728
1	65324674	857	51993
1	65402643	858	52258
1	65480155	859	52470
1	65559143	860	53318
1	65637660	861	53318
1	65714990	862	51622
1	65792976	863	53795
1	65870493	864	51516
1	65948861	865	52417
1	66027007	866	52894
1	66104087	867	51569
1	66181577	868	51834
1	66260335	869	53795
1	66337748	870	51569
1	66415401	871	51251
1	66493329	872	53371
1	66570158	873	49290
1	66648671	874	54113
1	66725090	875	48919
1	66803377	876	54219
1	66881512	877	54272
1	66958878	878	51145
1	67036926	879	53212
1	67114690	880	51834
1	67192666	881	52629
1	67271338	882	54219
1	67349616	883	51463
1	67427246	884	53000
1	67504963	885	52099
1	67583260	886	53636
1	67661633	887	53106
1	67739804	888	53530
1	67819527	889	54961
1	67896773	890	50403
1	67975789	891	54749
1	68054100	892	52947
1	68131545	893	51357
1	68210218	894	53530
1	68287770	895	52788
1	68366641	896	54431
1	68443984	897	50774
1	68521740	898	53689
1	68600723	899	52841
1	68676446	900	49131
1	68754575	901	52523
1	68832181	902	51940
1	68909694	903	51622
1	68988243	904	52099
1	69066061	905	53901
1	69144148	906	52152
1	69222749	907	54272
1	69300077	908	51675
1	69378891	909	54272
1	69456725	910	52417
1	69534490	911	53371
1	69612906	912	52152
1	69691856	913	55120
1	69770914	914	52523
1	69849256	915	53954
1	69926659	916	51622
1	70004846	917	52364
1	70082838	918	54431
1	70160559	919	50403
1	70237883	920	53212
1	70315575	921	50562
1	70390751	922	49661
1	70470609	923	55968
1	70547069	924	49873
1	70626145	925	53583
1	70702464	926	49979
1	70780426	927	52894
1	70858853	928	52682
1	70935771	929	51198
1	71014895	930	53689
1	71092446	931	52841
1	71171399	932	54908
1	71248348	933	50350
1	71326509	934	52576
1	71404497	935	52523
1	71483466	936	54166
1	71562178	937	53212
1	71640430	938	53053
1	71717996	939	52364
1	71797007	940	53901
1	71875020	941	52576
1	71952817	942	52311
1	72031644	943	54431
1	72109099	944	51834
1	72188394	945	54060
1	72266659	946	52470
1	72344724	947	53583
1	72422945	948	52735
1	72502099	949	54696
1	72579281	950	51410
1	72657311	951	54166
1	72735253	952	50827
1	72813115	953	52841
1	72891546	954	53053
1	72969333	955	52788
1	73047590	956	52523
1	73125320	957	53689
1	73203827	958	52735
1	73281860	959	52629
1	73359031	960	51039
1	73437498	961	53318
1	73516511	962	54802
1	73594800	963	52470
1	73672809	964	51357
1	73750300	965	53212
1	73829149	966	53954
1	73907393	967	51516
1	73986404	968	55332
1	74064160	969	51993
1	74142447	970	52629
1	74220149	971	52629
1	74297916	972	51569
1	74376335	973	54060
1	74456233	974	55385
1	74533674	975	52046
1	74610777	976	50933
1	74689654	977	54219
1	74767840	978	52735
1	74846171	979	53000
1	74924851	980	53795
1	75001731	981	50774
1	75079784	982	53371
1	75156973	983	50244
1	75236903	984	55544
1	75315348	985	53000
1	75393071	986	54166
1	75471215	987	52258
1	75550038	988	52841
1	75628294	989	52841
1	75707042	990	53848
1	75786087	991	54378
1	75864316	992	53636
1	75943153	993	54166
1	76020791	994	52682
1	76098620	995	52258
1	76178011	996	54696
1	76256654	997	54272
1	76335298	998	53530
1	76413682	999	53159
2	30302	20	298
2	98244	21	282
2	164063	22	29
2	238593	23	0
2	316397	24	136
2	392020	25	79
2	468886	26	89
2	544623	27	2
2	623165	28	85
2	699205	29	7
2	777571	30	4
2	856777	31	66
2	934052	32	26
2	1011956	33	73
2	1089763	34	18
2	1167466	35	31
2	1244685	36	18
2	1323253	37	55
2	1400700	38	27
2	1479168	39	78
2	1556722	40	45
2	1634068	41	18
2	1711606	42	25
2	1789729	43	40
2	1867516	44	30
2	1945905	45	9
2	2024133	46	47
2	2101834	47	40
2	2177507	48	38
2	2255773	49	63
2	2332921	50	6
2	2410812	51	38
2	2487975	52	8
2	2567029	53	47
2	2644217	54	14
2	2723480	55	19
2	2801962	56	52
2	2879737	57	49
2	2956939	58	71
2	3033357	59	18
2	3110904	60	41
2	3188090	61	41
2	3266027	62	55
2	3343425	63	17
2	3420833	64	8
2	3498438	65	39
2	3576196	66	43
2	3654192	67	40
2	3731971	68	43
2	3809546	69	26
2	3886448	70	22
2	3964071	71	5
2	4042584	72	27
2	4120497	73	53
2	4198457	74	44
2	4275446	75	19
2	4353133	76	10
2	4432686	77	72
2	4508517	78	48
2	4586663	79	13
2	4664596	80	42
2	4741763	81	28
2	4818916	82	107
2	4895496	83	51
2	4971668	84	46
2	5049340	85	57
2	5126379	86	22
2	5205598	87	30
2	5283661	88	35
2	5360717	89	40
2	5439372	90	33
2	5517032	91	43
2	5595328	92	24
2	5672842	93	28
2	5750956	94	33
2	5828346	95	79
2	5905639	96	29
2	5983850	97	53
2	6061791	98	9
2	6139356	99	42
2	6217132	100	35
2	6295520	101	68
2	6372878	102	13
2	6450980	103	56
2	6528672	104	34
2	6606692	105	43
2	6685014	106	60
2	6761993	107	27
2	6839595	108	47
2	6916806	109	39
2	6994030	110	9
2	7072904	111	22
2	7150491	112	29
2	7228327	113	28
2	7306708	114	33
2	7384079	115	9
2	7463435	116	56
2	7540781	117	30
2	7618412	118	56
2	7696630	119	27
2	7774803	120	26
2	7852760	121	35
2	7929964	122	14
2	8008550	123	21
2	8086294	124	13
2	8165473	125	55
2	8243281	126	31
2	8321073	127	21
2	8399916	128	25
2	8477637	129	17
2	8556467	130	59
2	8632353	131	7
2	8711478	132	49
2	8789489	133	17
2	8867259	134	36
2	8945382	135	61
2	9022592	136	29
2	9100279	137	47
2	9178774	138	17
2	9257394	139	32
2	9335615	140	50
2	9413549	141	16
2	9492907	142	27
2	9570801	143	33
2	9649592	144	34
2	9727677	145	15
2	9805825	146	50
2	9884039	147	26
2	9960893	148	23
2	10039365	149	36
2	10117557	150	10
2	10196410	151	4
2	10274899	152	57
2	10352221	153	22
2	10429782	154	50
2	10508003	155	19
2	10585926	156	11
2	10664151	157	11
2	10742233	158	76
2	10820669	159	43
2	10898389	160	66
2	10974773	161	40
2	11052505	162	12
2	11130890	163	43
2	11209761	164	34
2	11286999	165	27
2	11365366	166	11
2	11443630	167	46
2	11520685	168	28
2	11598471	169	12
2	11676381	170	54
2	11753243	171	40
2	11830162	172	15
2	11908560	173	36
2	11986531	174	31
2	12063636	175	10
2	12142205	176	30
2	12220236	177	19
2	12297993	178	6
2	12375800	179	66
2	12453310	180	35
2	12530840	181	2
2	12609333	182	33
2	12687747	183	66
2	12764106	184	3
2	12843025	185	50
2	12921132	186	19
2	12999882	187	21
2	13078220	188	32
2	13155968	189	48
2	13233814	190	26
2	13312115	191	45
2	13390277	192	30
2	13467503	193	50
2	13545414	194	87
2	13622306	195	12
2	13700815	196	56
2	13779136	197	12
2	13857386	198	31
2	13935455	199	17
2	14014247	200	38
2	14091956	201	38
2	14170426	202	21
2	14248839	203	13
2	14327853	204	42
2	14405084	205	67
2	14482145	206	15
2	14560422	207	24
2	14638813	208	24
2	14716901	209	23
2	14794506	210	45
2	14872252	211	30
2	14950329	212	11
2	15028833	213	2
2	15107753	214	64
2	15185735	215	51
2	15262773	216	28
2	15340843	217	41
2	15418684	218	11
2	15497890	219	30
2	15574966	220	23
2	15652876	221	22
2	15731477	222	18
2	15808781	223	12
2	15888116	224	22
2	15966560	225	59
2	16043278	226	34
2	16121803	227	61
2	16198236	228	4
2	16276724	229	26
2	16355727	230	59
2	16432752	231	26
2	16510883	232	28
2	16589249	233	41
2	16666210	234	3
2	16745252	235	50
2	16822498	236	49
2	16901117	237	6
2	16979068	238	41
2	17057794	239	19
2	17136128	240	22
2	17214546	241	22
2	17292747	242	26
2	17369518	243	18
2	17448787	244	42
2	17526439	245	25
2	17604624	246	14
2	17683592	247	12
2	17762269	248	63
2	17840066	249	11
2	17918399	250	50
2	17995574	251	55
2	18073660	252	20
2	18151383	253	12
2	18230391	254	58
2	18307875	255	16
2	18386297	256	23
2	18464321	257	42
2	18542837	258	44
2	18619592	259	56
2	18697240	260	20
2	18775349	261	37
2	18852580	262	45
2	18928870	263	5
2	19007876	264	40
2	19085897	265	17
2	19163630	266	28
2	19241957	267	29
2	19320394	268	55
2	19397857	269	40
2	19475917	270	5
2	19554886	271	53
2	19632667	272	24
2	19711212	273	24
2	19789842	274	29
2	19867742	275	35
2	19945604	276	23
2	20023689	277	29
2	20103361	278	89
2	20180677	279	6
2	20259089	280	70
2	20336349	281	35
2	20414380	282	26
2	20491885	283	24
2	20570730	284	56
2	20648383	285	20
2	20726818	286	25
2	20805962	287	95
2	20882872	288	19
2	20960607	289	84
2	21038161	290	44
2	21115330	291	41
2	21193864	292	29
2	21272915	293	17
2	21350892	294	36
2	21429069	295	35
2	21507715	296	21
2	21585900	297	32
2	21665235	298	50
2	21742485	299	39
2	21819597	300	22
2	21898648	301	33
2	21976369	302	15
2	22055083	303	60
2	22131942	304	20
2	22210873	305	40
2	22288920	306	49
2	22366233	307	18
2	22444805	308	56
2	22521689	309	7
2	22601065	310	72
2	22678911	311	41
2	22756156	312	34
2	22834369	313	13
2	22912898	314	71
2	22989446	315	5
2	23069194	316	50
2	23147613	317	25
2	23225943	318	4
2	23304673	319	39
2	23382310	320	30
2	23460384	321	31
2	23538717	322	44
2	23616267	323	2
2	23694646	324	41
2	23773054	325	13
2	23851584	326	73
2	23929173	327	45
2	24006970	328	15
2	24084978	329	36
2	24162513	330	20
2	24240923	331	23
2	24319961	332	66
2	24397534	333	33
2	24475207	334	11
2	24553955	335	63
2	24632083	336	69
2	24709086	337	10
2	24788002	338	15
2	24866585	339	31
2	24944412	340	54
2	25023415	341	21
2	25102150	342	70
2	25179281	343	33
2	25257733	344	42
2	25335218	345	34
2	25413700	346	70
2	25491584	347	10
2	25569354	348	46
2	25647623	349	51
2	25725889	350	24
2	25804497	351	35
2	25881621	352	13
2	25960513	353	62
2	26037541	354	3
2	26117255	355	62
2	26194651	356	22
2	26273022	357	27
2	26351282	358	77
2	26428866	359	37
2	26507917	360	29
2	26585067	361	38
2	26663732	362	36
2	26742187	363	77
2	26819478	364	9
2	26897785	365	65
2	26974413	366	38
2	27052410	367	13
2	27130915	368	16
2	27209153	369	31
2	27288279	370	51
2	27366272	371	37
2	27444600	372	7
2	27523399	373	61
2	27601262	374	0
2	27680974	375	91
2	27757529	376	7
2	27836412	377	33
2	27914888	378	7
2	27993485	379	41
2	28071861	380	19
2	28150147	381	10
2	28229407	382	26
2	28307197	383	5
2	28385836	384	29
2	28463094	385	39
2	28542313	386	62
2	28618624	387	8
2	28697529	388	37
2	28775914	389	7
2	28853111	390	2
2	28932903	391	107
2	29009689	392	36
2	29086803	393	16
2	29165007	394	48
2	29243203	395	20
2	29322403	396	65
2	29399924	397	10
2	29478783	398	48
2	29556481	399	8
2	29635842	400	65
2	29713946	401	27
2	29792708	402	37
2	29870776	403	42
2	29948622	404	31
2	30027726	405	64
2	30104371	406	55
2	30181540	407	4
2	30260639	408	52
2	30338805	409	54
2	30416053	410	14
2	30493801	411	33
2	30572342	412	17
2	30651158	413	29
2	30728918	414	24
2	30807396	415	30
2	30886854	416	21
2	30964643	417	21
2	31043062	418	72
2	31121780	419	23
2	31200407	420	10
2	31278924	421	24
2	31357096	422	85
2	31434596	423	28
2	31512128	424	32
2	31590940	425	5
2	31670395	426	80
2	31748129	427	29