version 2
run QLearnCC-3-20100909-00:16:06-5432
attr configname QLearnCC
attr datetime 20100909-00:16:06
attr experiment QLearnCC
attr inifile D:/Developement/Oversim2/multic/simulations/omnetpp.ini
attr iterationvars $nhops=5
attr iterationvars2 "$nhops=5, $repetition=0"
attr measurement $nhops=5
attr network oversim.underlay.simpleunderlay.SimpleUnderlayNetwork
attr nhops 5
attr processid 5432
attr repetition 0
attr replication #0
attr resultdir results
attr runnumber 3
attr seedset 3

vector 1  SimpleUnderlayNetwork.globalObserver.globalStatistics  incoming_bytes  ETV
vector 2  SimpleUnderlayNetwork.globalObserver.globalStatistics  drops  ETV
vector 3  SimpleUnderlayNetwork.globalObserver.globalStatistics  delayed_acks  ETV
vector 4  SimpleUnderlayNetwork.globalObserver.globalStatistics  timetotimeouts  ETV
vector 5  SimpleUnderlayNetwork.globalObserver.globalStatistics  9rateOf1To0  ETV
vector 6  SimpleUnderlayNetwork.globalObserver.globalStatistics  max9RateOf1To0  ETV
vector 7  SimpleUnderlayNetwork.globalObserver.globalStatistics  9rateOf1To1  ETV
vector 8  SimpleUnderlayNetwork.globalObserver.globalStatistics  max9RateOf1To1  ETV
vector 9  SimpleUnderlayNetwork.globalObserver.globalStatistics  9rateOf1To2  ETV
vector 10  SimpleUnderlayNetwork.globalObserver.globalStatistics  max9RateOf1To2  ETV
vector 11  SimpleUnderlayNetwork.globalObserver.globalStatistics  9rateOf1To3  ETV
vector 12  SimpleUnderlayNetwork.globalObserver.globalStatistics  max9RateOf1To3  ETV
vector 13  SimpleUnderlayNetwork.globalObserver.globalStatistics  9rateOf1To4  ETV
vector 14  SimpleUnderlayNetwork.globalObserver.globalStatistics  max9RateOf1To4  ETV
vector 15  SimpleUnderlayNetwork.globalObserver.globalStatistics  9rateOf1To5  ETV
vector 16  SimpleUnderlayNetwork.globalObserver.globalStatistics  max9RateOf1To5  ETV
vector 17  SimpleUnderlayNetwork.globalObserver.globalStatistics  9rateOf1To6  ETV
vector 18  SimpleUnderlayNetwork.globalObserver.globalStatistics  max9RateOf1To6  ETV
vector 19  SimpleUnderlayNetwork.globalObserver.globalStatistics  9rateOf1To7  ETV
vector 20  SimpleUnderlayNetwork.globalObserver.globalStatistics  max9RateOf1To7  ETV
vector 21  SimpleUnderlayNetwork.globalObserver.globalStatistics  9rateOf1To8  ETV
vector 22  SimpleUnderlayNetwork.globalObserver.globalStatistics  max9RateOf1To8  ETV
vector 23  SimpleUnderlayNetwork.globalObserver.globalStatistics  9rateOf1To9  ETV
vector 24  SimpleUnderlayNetwork.globalObserver.globalStatistics  max9RateOf1To9  ETV
vector 25  SimpleUnderlayNetwork.globalObserver.globalStatistics  1rate  ETV
vector 26  SimpleUnderlayNetwork.globalObserver.globalStatistics  max2Rate  ETV
vector 27  SimpleUnderlayNetwork.globalObserver.globalStatistics  "GlobalNodeList: Number of nodes"  ETV
vector 28  SimpleUnderlayNetwork.globalObserver.globalStatistics  "GlobalNodeList: Number of bootstrapped malicious nodes"  ETV
1	215405082	6019	49926
1	215442681	6020	50350
1	215479883	6021	50456
1	215517430	6022	50350
1	215555073	6023	50456
1	215592021	6024	49661
1	215629228	6025	49714
1	215666857	6026	50562
1	215704073	6027	50085
1	215741080	6028	49396
1	215778403	6029	49873
1	215815392	6030	49502
1	215852878	6031	50986
1	215889781	6032	49555
1	215927392	6033	50774
1	215964727	6034	50191
1	216002454	6035	50880
1	216039702	6036	49926
1	216077422	6037	50827
1	216114759	6038	49555
1	216151679	6039	49926
1	216189593	6040	51145
1	216226948	6041	50032
1	216264390	6042	50138
1	216301381	6043	50032
1	216338611	6044	49926
1	216375585	6045	49714
1	216413042	6046	50827
1	216450404	6047	50191
1	216487559	6048	49979
1	216524526	6049	49502
1	216562210	6050	50562
1	216599617	6051	50615
1	216636440	6052	48707
1	216673810	6053	50827
1	216710690	6054	49290
1	216748164	6055	50509
1	216785605	6056	50350
1	216823061	6057	49979
1	216860348	6058	50138
1	216897800	6059	50774
1	216935299	6060	50138
1	216972265	6061	49820
1	217009576	6062	49767
1	217046855	6063	50509
1	217084440	6064	50668
1	217121515	6065	49820
1	217158253	6066	49131
1	217195188	6067	49396
1	217232575	6068	50880
1	217269561	6069	49237
1	217306877	6070	50350
1	217344167	6071	50403
1	217381387	6072	49926
1	217418648	6073	50138
1	217455385	6074	48972
1	217492534	6075	50297
1	217529772	6076	49926
1	217566869	6077	49979
1	217604133	6078	49926
1	217641622	6079	50191
1	217679003	6080	50350
1	217716410	6081	50615
1	217754256	6082	50615
1	217791233	6083	49449
1	217828276	6084	50032
1	217865415	6085	49820
1	217902623	6086	49979
1	217939781	6087	50297
1	217976724	6088	48919
1	218013937	6089	49979
1	218051115	6090	50191
1	218088267	6091	49873
1	218125676	6092	50456
1	218162653	6093	50138
1	218199652	6094	49025
1	218237168	6095	50668
1	218273777	6096	48442
1	218310881	6097	50085
1	218347920	6098	49502
1	218384912	6099	50191
1	218421738	6100	49237
1	218459017	6101	49979
1	218496397	6102	50668
1	218533512	6103	49502
1	218570885	6104	50191
1	218607913	6105	49502
1	218645123	6106	50668
1	218682591	6107	50562
1	218719982	6108	50509
1	218757524	6109	49767
1	218794620	6110	50403
1	218831393	6111	49184
1	218869140	6112	50509
1	218906477	6113	50774
1	218943860	6114	49979
1	218981042	6115	49873
1	219017916	6116	49343
1	219055314	6117	50297
1	219092182	6118	49820
1	219129763	6119	49979
1	219167127	6120	50350
1	219203702	6121	49661
1	219241018	6122	50297
1	219277623	6123	48707
1	219314810	6124	50721
1	219352666	6125	50350
1	219390140	6126	50350
1	219427601	6127	50668
1	219464504	6128	49555
1	219501859	6129	49979
1	219539322	6130	50403
1	219576949	6131	50721
1	219613983	6132	49661
1	219651672	6133	50403
1	219688862	6134	49873
1	219726120	6135	50032
1	219763578	6136	50032
1	219800943	6137	50350
1	219838099	6138	50456
1	219875338	6139	49979
1	219912424	6140	49608
1	219949756	6141	50509
1	219987356	6142	50509
1	220024892	6143	50774
1	220062251	6144	49926
1	220099435	6145	49767
1	220136976	6146	50244
1	220174534	6147	50297
1	220211393	6148	50509
1	220248716	6149	49555
1	220286489	6150	50986
1	220324033	6151	50456
1	220361621	6152	50297
1	220399132	6153	50721
1	220436156	6154	49502
1	220473145	6155	50032
1	220511109	6156	50350
1	220547908	6157	49873
1	220585274	6158	50244
1	220622500	6159	49873
1	220659996	6160	50403
1	220697101	6161	50138
1	220734541	6162	50350
1	220771549	6163	49608
1	220808636	6164	49873
1	220846346	6165	50350
1	220883654	6166	50138
1	220921114	6167	50721
1	220958164	6168	49184
1	220995610	6169	50668
1	221033314	6170	50456
1	221070862	6171	50509
1	221107927	6172	49502
1	221145496	6173	50456
1	221182587	6174	50138
1	221219682	6175	49714
1	221256724	6176	49449
1	221294140	6177	49979
1	221331336	6178	50615
1	221368437	6179	49290
1	221405560	6180	49873
1	221443246	6181	50403
1	221480619	6182	50297
1	221517574	6183	49820
1	221554447	6184	49290
1	221591429	6185	49767
1	221628638	6186	50615
1	221665964	6187	49979
1	221703059	6188	49661
1	221740312	6189	49661
1	221777502	6190	49926
1	221814432	6191	50032
1	221851978	6192	50032
1	221888732	6193	49714
1	221925993	6194	49502
1	221963063	6195	50244
1	221999996	6196	49608
1	222036900	6197	49502
1	222073918	6198	49926
1	222111096	6199	50085
1	222148049	6200	49290
1	222185502	6201	50085
1	222222521	6202	50456
1	222260100	6203	50297
1	222297486	6204	49926
1	222334606	6205	49820
1	222372163	6206	50350
1	222409118	6207	49873
1	222446435	6208	49926
1	222483315	6209	49608
1	222520791	6210	50297
1	222558159	6211	50191
1	222595661	6212	49873
1	222632849	6213	50986
1	222669894	6214	49396
1	222707207	6215	50032
1	222744568	6216	49873
1	222781921	6217	50827
1	222819549	6218	49714
1	222856458	6219	50138
1	222894242	6220	50509
1	222931574	6221	50085
1	222968147	6222	49555
1	223005412	6223	49661
1	223042724	6224	50350
1	223080098	6225	50138
1	223117415	6226	50509
1	223155069	6227	50191
1	223192561	6228	50191
1	223229452	6229	50191
1	223266867	6230	50456
1	223304026	6231	49661
1	223341675	6232	50456
1	223379152	6233	50774
1	223416719	6234	50668
1	223454137	6235	50297
1	223491445	6236	49873
1	223528899	6237	50297
1	223566124	6238	50509
1	223603499	6239	50032
1	223640561	6240	50191
1	223678012	6241	50297
1	223715491	6242	50191
1	223752849	6243	50456
1	223790423	6244	50456
1	223827985	6245	50827
1	223865377	6246	49926
1	223902949	6247	50350
1	223940098	6248	50774
1	223977972	6249	50191
1	224015230	6250	50138
1	224052814	6251	50562
1	224090803	6252	50986
1	224128413	6253	50403
1	224165330	6254	50032
1	224203033	6255	50774
1	224240877	6256	50880
1	224278530	6257	51092
1	224316381	6258	50138
1	224353878	6259	51145
1	224391348	6260	50350
1	224428501	6261	49131
1	224465616	6262	50138
1	224502688	6263	49608
1	224540087	6264	50191
1	224577240	6265	50244
1	224614908	6266	50562
1	224651470	6267	48442
1	224688919	6268	50721
1	224726319	6269	50509
1	224763510	6270	50191
1	224801211	6271	50350
1	224838912	6272	50721
1	224876503	6273	50774
1	224914301	6274	50774
1	224951972	6275	50562
1	224989586	6276	50403
1	225027256	6277	50880
1	225064575	6278	50350
1	225101986	6279	49979
1	225139475	6280	49979
1	225177113	6281	50827
1	225214326	6282	50509
1	225252160	6283	50933
1	225289656	6284	50085
1	225326871	6285	50138
1	225364625	6286	50721
1	225402016	6287	50032
1	225439603	6288	50668
1	225476453	6289	49608
1	225514214	6290	50138
1	225552284	6291	51781
1	225589603	6292	50297
1	225626999	6293	49237
1	225664222	6294	50668
1	225701487	6295	49714
1	225739070	6296	50880
1	225776736	6297	50509
1	225813861	6298	49979
1	225851832	6299	50986
1	225889151	6300	50297
1	225927175	6301	50350
1	225964910	6302	51039
1	226002443	6303	50509
1	226039602	6304	49926
1	226077158	6305	50403
1	226114409	6306	50138
1	226151843	6307	50297
1	226189345	6308	50244
1	226227077	6309	50774
1	226264675	6310	49979
1	226302098	6311	50509
1	226339718	6312	50933
1	226377058	6313	50509
1	226414654	6314	50403
1	226452218	6315	50933
1	226489975	6316	50721
1	226527059	6317	49555
1	226564425	6318	50456
1	226601923	6319	49979
1	226639419	6320	51145
1	226676974	6321	50085
1	226713943	6322	49449
1	226751229	6323	50350
1	226788246	6324	49926
1	226825693	6325	49820
1	226863429	6326	51357
1	226901363	6327	50509
1	226939232	6328	51039
1	226976738	6329	50456
1	227014714	6330	51304
1	227052419	6331	50668
1	227089385	6332	49396
1	227126555	6333	50297
1	227164353	6334	50880
1	227201947	6335	50350
1	227239457	6336	50085
1	227276904	6337	50880
1	227314709	6338	50668
1	227352284	6339	50774
1	227389761	6340	49979
1	227427200	6341	50615
1	227464908	6342	50350
1	227502444	6343	50615
1	227539854	6344	50615
1	227577462	6345	50085
1	227614890	6346	50774
1	227652418	6347	50721
1	227689492	6348	49078
1	227726996	6349	50297
1	227764109	6350	50138
1	227801712	6351	50562
1	227839457	6352	50456
1	227877159	6353	50880
1	227914905	6354	50456
1	227952506	6355	50774
1	227990194	6356	51039
1	228027765	6357	50774
1	228065316	6358	50085
1	228102777	6359	50297
1	228140272	6360	50403
1	228177873	6361	51198
1	228215266	6362	50297
1	228252893	6363	50456
1	228290474	6364	50191
1	228327743	6365	50562
1	228365181	6366	50244
1	228403414	6367	51251
1	228441059	6368	50509
1	228478439	6369	50615
1	228515628	6370	50297
1	228553172	6371	50085
1	228590294	6372	50456
1	228628120	6373	50138
1	228665971	6374	51145
1	228703694	6375	50986
1	228741432	6376	50615
1	228778884	6377	50350
1	228816148	6378	50350
1	228854073	6379	50986
1	228891353	6380	50350
1	228929466	6381	51198
1	228967102	6382	50615
1	229004995	6383	51251
1	229042137	6384	49025
1	229079871	6385	51198
1	229117316	6386	50615
1	229155153	6387	50933
1	229192773	6388	50297
1	229230186	6389	49714
1	229267880	6390	50986
1	229306008	6391	51198
1	229343259	6392	50191
1	229380953	6393	50509
1	229418954	6394	51251
1	229456299	6395	50244
1	229493499	6396	50085
1	229531151	6397	50774
1	229569229	6398	50615
1	229606904	6399	50615
1	229644217	6400	50297
1	229682130	6401	51304
1	229719166	6402	48972
1	229757043	6403	50986
1	229794308	6404	50350
1	229832159	6405	50509
1	229869979	6406	50933
1	229907195	6407	49926
1	229945181	6408	50986
1	229983017	6409	51145
1	230020248	6410	49926
1	230057683	6411	49767
1	230094650	6412	49820
1	230132160	6413	50191
1	230169621	6414	51092
1	230207133	6415	49873
1	230244714	6416	50085
1	230281887	6417	50032
1	230319733	6418	50880
1	230357210	6419	51092
1	230394920	6420	50297
1	230432172	6421	49555
1	230469631	6422	51039
1	230507339	6423	50244
1	230544866	6424	50509
1	230582364	6425	50297
1	230620062	6426	50827
1	230657388	6427	49873
1	230695050	6428	51092
1	230732777	6429	50403
1	230770262	6430	49979
1	230807997	6431	51039
1	230845709	6432	50297
1	230883479	6433	50456
1	230920938	6434	50721
1	230958380	6435	50244
1	230996109	6436	50191
1	231033766	6437	50880
1	231071427	6438	50721
1	231108970	6439	51092
1	231146767	6440	50244
1	231184078	6441	50350
1	231221860	6442	50986
1	231259689	6443	50615
1	231296812	6444	50403
1	231334496	6445	50244
1	231371657	6446	50244
1	231409145	6447	49926
1	231446848	6448	51304
1	231484599	6449	50562
1	231521396	6450	49396
1	231559112	6451	50509
1	231596726	6452	51092
1	231634671	6453	50933
1	231671904	6454	49449
1	231709416	6455	50721
1	231747062	6456	50615
1	231784386	6457	49820
1	231821747	6458	50350
1	231859578	6459	50827
1	231897307	6460	51357
1	231934989	6461	50456
1	231973121	6462	51410
1	232010885	6463	50933
1	232048998	6464	50933
1	232086423	6465	50456
1	232124144	6466	50933
1	232161937	6467	50668
1	232199837	6468	50933
1	232237706	6469	51092
1	232275640	6470	51145
1	232313289	6471	50403
1	232350796	6472	50350
1	232387920	6473	49661
1	232425484	6474	50562
1	232462888	6475	50191
1	232500542	6476	50774
1	232537986	6477	50297
1	232575487	6478	50509
1	232613181	6479	50880
1	232650677	6480	50191
1	232688163	6481	50668
1	232726065	6482	51092
1	232763031	6483	48919
1	232800365	6484	50509
1	232837955	6485	50668
1	232875576	6486	50562
1	232913434	6487	50880
1	232951177	6488	50986
1	232988870	6489	51039
1	233026060	6490	49608
1	233063475	6491	50509
1	233101187	6492	50509
1	233138754	6493	51198
1	233176473	6494	50509
1	233213956	6495	50085
1	233251662	6496	50933
1	233289919	6497	51463
1	233327646	6498	49767
1	233365445	6499	51887
1	233403613	6500	50880
1	233441385	6501	50774
1	233478919	6502	50191
1	233515943	6503	49714
1	233553554	6504	50933
1	233590851	6505	49820
1	233628409	6506	51039
1	233666065	6507	50085
1	233703170	6508	50562
1	233740620	6509	50138
1	233778413	6510	50933
1	233815374	6511	49608
1	233853235	6512	50721
1	233891348	6513	51516
1	233928819	6514	50562
1	233966972	6515	50880
1	234004234	6516	49767
1	234041696	6517	50668
1	234079087	6518	50774
1	234116862	6519	49926
1	234153505	6520	49873
1	234191428	6521	51251
1	234229049	6522	49926
1	234266799	6523	50562
1	234304717	6524	51622
1	234342238	6525	50403
1	234380068	6526	50668
1	234417377	6527	49820
1	234454845	6528	49979
1	234492508	6529	50721
1	234530474	6530	51304
1	234568211	6531	50350
1	234605823	6532	51251
1	234643213	6533	49979
1	234681064	6534	50456
1	234718428	6535	50668
1	234756108	6536	50403
1	234793706	6537	50562
1	234831540	6538	50986
1	234869115	6539	50350
1	234906619	6540	50350
1	234944096	6541	50456
1	234981436	6542	49873
1	235018549	6543	50509
1	235056981	6544	50986
1	235094388	6545	50244
1	235131787	6546	49767
1	235169532	6547	50827
1	235206883	6548	50032
1	235244716	6549	50986
1	235282334	6550	50403
1	235319949	6551	50562
1	235358011	6552	51198
1	235395350	6553	49502
1	235433210	6554	50827
1	235470720	6555	51039
1	235508325	6556	49926
1	235545980	6557	50880
1	235582506	6558	48018
1	235619997	6559	50562
1	235657345	6560	50244
1	235695026	6561	50721
1	235731916	6562	49449
1	235769877	6563	50456
1	235807132	6564	50827
1	235844695	6565	49873
1	235882375	6566	50456
1	235919559	6567	50403
1	235957570	6568	50774
1	235994595	6569	49555
1	236032159	6570	50615
1	236069818	6571	50880
1	236107604	6572	50138
1	236145113	6573	50403
1	236182665	6574	50827
1	236220004	6575	49608
1	236257434	6576	50456
1	236294756	6577	50615
1	236332402	6578	50297
1	236370207	6579	50721
1	236407271	6580	49767
1	236444499	6581	50350
1	236482367	6582	50562
1	236519821	6583	50032
1	236556932	6584	49979
1	236594482	6585	50774
1	236631883	6586	49979
1	236669890	6587	51039
1	236707338	6588	50827
1	236745222	6589	50880
1	236783000	6590	50297
1	236820428	6591	50350
1	236857885	6592	50562
1	236895741	6593	50986
1	236933620	6594	50986
1	236971374	6595	50456
1	237008888	6596	50509
1	237046778	6597	50827
1	237084751	6598	51145
1	237122217	6599	50350
1	237159488	6600	49661
1	237196660	6601	49767
1	237233761	6602	49555
1	237271391	6603	50774
1	237309379	6604	51304
1	237346235	6605	49396
1	237384311	6606	51622
1	237421996	6607	50615
1	237460034	6608	50986
1	237497261	6609	49449
1	237534710	6610	50297
1	237572133	6611	51039
1	237609788	6612	49661
1	237647514	6613	51304
1	237685200	6614	50509
1	237722723	6615	50721
1	237760706	6616	51145
1	237798678	6617	50933
1	237835219	6618	48972
1	237872198	6619	49449
1	237910335	6620	51198
1	237947169	6621	49502
1	237984802	6622	50456
1	238022265	6623	50721
1	238059861	6624	50403
1	238097509	6625	49873
1	238134935	6626	51251
1	238172627	6627	49979
1	238210258	6628	50827
1	238247859	6629	49926
1	238285383	6630	50774
1	238323309	6631	50668
1	238360491	6632	49555
1	238398378	6633	50827
1	238436337	6634	51357
1	238474178	6635	50509
1	238511256	6636	49873
1	238549114	6637	50986
1	238586231	6638	49555
1	238624275	6639	50615
1	238661266	6640	50032
1	238699345	6641	51463
1	238736563	6642	49608
1	238774348	6643	50244
1	238811723	6644	50085
1	238849136	6645	50986
1	238886850	6646	50403
1	238923925	6647	49396
1	238960978	6648	49661
1	238997911	6649	49449
1	239035322	6650	50456
1	239072352	6651	49237
1	239109577	6652	50244
1	239146607	6653	49555
1	239184505	6654	51145
1	239221721	6655	49714
1	239258972	6656	48866
1	239296603	6657	51198
1	239333002	6658	49025
1	239370970	6659	50774
1	239407707	6660	49184
1	239444930	6661	50191
1	239482474	6662	50721
1	239519656	6663	49820
1	239556660	6664	50032
1	239594320	6665	50244
1	239632089	6666	51516
1	239669123	6667	49184
1	239706019	6668	49078
1	239743307	6669	50191
1	239779741	6670	48124
1	239817112	6671	50880
1	239854642	6672	50615
1	239892049	6673	50032
1	239929193	6674	50297
1	239966862	6675	50244
1	240004471	6676	50350
1	240041896	6677	50403
1	240078708	6678	49449
1	240115814	6679	50032
1	240152958	6680	49873
1	240190383	6681	49502
1	240227543	6682	50085
1	240264763	6683	49502
1	240301535	6684	50350
1	240338879	6685	50085
1	240376541	6686	50986
1	240414090	6687	49661
1	240451352	6688	49873
1	240488521	6689	50509
1	240526224	6690	50456
1	240563519	6691	50085
1	240600651	6692	49926
1	240638159	6693	50456
1	240675803	6694	50933
1	240713284	6695	49926
1	240750327	6696	49449
1	240787870	6697	50827
1	240825050	6698	49926
1	240861806	6699	48707
1	240898482	6700	49661
1	240935757	6701	50403
1	240972765	6702	49396
1	241010111	6703	50403
1	241046777	6704	49555
1	241084305	6705	50244
1	241122643	6706	51569
1	241160141	6707	50509
1	241197938	6708	50615
1	241235351	6709	50880
1	241272826	6710	49820
1	241310221	6711	50562
1	241347327	6712	49661
1	241384707	6713	50297
1	241422218	6714	50403
1	241459937	6715	50986
1	241497146	6716	50032
1	241534502	6717	49873
1	241571327	6718	49555
1	241608879	6719	50244
1	241645573	6720	49078
1	241682744	6721	50244
1	241720344	6722	49979
1	241757302	6723	50032
1	241794437	6724	49767
1	241831922	6725	50456
1	241869390	6726	50350
1	241906509	6727	49714
1	241943801	6728	50562
1	241980991	6729	50085
1	242018617	6730	50244
1	242055526	6731	50456
1	242093673	6732	50827
1	242130806	6733	49502
1	242167992	6734	50933
1	242205284	6735	49449
1	242242460	6736	49926
1	242279944	6737	50085
1	242317235	6738	50244
1	242354438	6739	50615
1	242391941	6740	49714
1	242429643	6741	51516
1	242467493	6742	50297
1	242504775	6743	50350
1	242542409	6744	50456
1	242579764	6745	50138
1	242617105	6746	50191
1	242654525	6747	50774
1	242692294	6748	50615
1	242730043	6749	50244
1	242767669	6750	50774
1	242805323	6751	50721
1	242843067	6752	50827
1	242880318	6753	49608
1	242917712	6754	50615
1	242955257	6755	50668
1	242992733	6756	50350
1	243029809	6757	49502
1	243067689	6758	51251
1	243105366	6759	50297
1	243142632	6760	50244
1	243180158	6761	50509
1	243218145	6762	50986
1	243255761	6763	50880
1	243293602	6764	50350
1	243331456	6765	51092
1	243369064	6766	50032
1	243406424	6767	50933
1	243443474	6768	49608
1	243480835	6769	50562
1	243518656	6770	50615
1	243556249	6771	50615
1	243593958	6772	50297
1	243631349	6773	50880
1	243669492	6774	51039
1	243706737	6775	49502
1	243744004	6776	49926
1	243781337	6777	50456
1	243818841	6778	49873
1	243856228	6779	50403
1	243893956	6780	51039
1	243931683	6781	50668
1	243968817	6782	49502
1	244006644	6783	51304
1	244043944	6784	50085
1	244081242	6785	50403
1	244119045	6786	49661
1	244156790	6787	51516
1	244193913	6788	50191
1	244231799	6789	50986
1	244269642	6790	50774
1	244307357	6791	50774
1	244344873	6792	50562
1	244382391	6793	50138
1	244420073	6794	50986
1	244457705	6795	50562
1	244494700	6796	49502
1	244532513	6797	50774
1	244570274	6798	50880
1	244607741	6799	50350
1	244645408	6800	50456
1	244682946	6801	50827
1	244720524	6802	50721
1	244758508	6803	50403
1	244795984	6804	50509
1	244833484	6805	50615
1	244871631	6806	50880
1	244908948	6807	50456
1	244946225	6808	49502
1	244984273	6809	51728
1	245021255	6810	49608
1	245058595	6811	49873
1	245096037	6812	50721
1	245133451	6813	50456
1	245171218	6814	50986
1	245208937	6815	50562
1	245246714	6816	50668
1	245284337	6817	50191
1	245321957	6818	51092
1	245360002	6819	50933
1	245397333	6820	49767
1	245435480	6821	51516
1	245472854	6822	50774
1	245510663	6823	50509
1	245547958	6824	50085
1	245585606	6825	50774
1	245623064	6826	50191
1	245660218	6827	49820
1	245697566	6828	50244
1	245735081	6829	50721
1	245772976	6830	51039
1	245810297	6831	49661
1	245848289	6832	51304
1	245886092	6833	50191
1	245922911	6834	49873
1	245960595	6835	50509
1	245998106	6836	50933
1	246035487	6837	50244
1	246073193	6838	51092
1	246111342	6839	50774
1	246148927	6840	49661
1	246186312	6841	50880
1	246223930	6842	50509
1	246261800	6843	50827
1	246298909	6844	49555
1	246336725	6845	51251
1	246374391	6846	50562
1	246411759	6847	49767
1	246449430	6848	50827
1	246486543	6849	50138
1	246524338	6850	49979
1	246562529	6851	51304
1	246599763	6852	50191
1	246637262	6853	50244
1	246674121	6854	49926
1	246711902	6855	50244
1	246749353	6856	50297
1	246786687	6857	50350
1	246824431	6858	50827
1	246861900	6859	50244
1	246899364	6860	50827
1	246936475	6861	49873
1	246974227	6862	50244
1	247011183	6863	49767
1	247049050	6864	50562
1	247086328	6865	50244
1	247123720	6866	50456
1	247161524	6867	50880
1	247199027	6868	49714
1	247236737	6869	51410
1	247274275	6870	50456
1	247311987	6871	50244
1	247349164	6872	50085
1	247386341	6873	49979
1	247423640	6874	49714
1	247461124	6875	50509
1	247498334	6876	50403
1	247535906	6877	50191
1	247573308	6878	50774
1	247610933	6879	50403
1	247648312	6880	49926
1	247685611	6881	50562
1	247723125	6882	49979
1	247760700	6883	50456
1	247798388	6884	51145
1	247836145	6885	50721
1	247873990	6886	50456
1	247910995	6887	50032
1	247948336	6888	50191
1	247986316	6889	51516
1	248023885	6890	50085
1	248061803	6891	51357
1	248099327	6892	50191
1	248136752	6893	49979
1	248174071	6894	50721
1	248210989	6895	49290
1	248248380	6896	50138
1	248285515	6897	50350
1	248322925	6898	50138
1	248360424	6899	50138
1	248397854	6900	50562
1	248435728	6901	50986
1	248472622	6902	49502
1	248510321	6903	50986
1	248547479	6904	49502
1	248584890	6905	50297
1	248621513	6906	49078
1	248659267	6907	51145
1	248696616	6908	50509
1	248734250	6909	49979
1	248771513	6910	50244
1	248809314	6911	51039
1	248847190	6912	50880
1	248884661	6913	50562
1	248922266	6914	50774
1	248959530	6915	49343
1	248997398	6916	50933
1	249034278	6917	49184
1	249071517	6918	50085
1	249109286	6919	50933
1	249146965	6920	50668
1	249184505	6921	50721
1	249222511	6922	50986
1	249260453	6923	50456
1	249297309	6924	49290
1	249334739	6925	50933
1	249372163	6926	50721
1	249409916	6927	50244
1	249448008	6928	51516
1	249485738	6929	50721
1	249523265	6930	49820
1	249561066	6931	50827
1	249598057	6932	49820
1	249635542	6933	50509
1	249672944	6934	50456
1	249710868	6935	50880
1	249748319	6936	50191
1	249785826	6937	50456
1	249823003	6938	50403
1	249860423	6939	50085
1	249897980	6940	50456
1	249935510	6941	50721
1	249972845	6942	49926
1	250010062	6943	50191
1	250047912	6944	50615
1	250085545	6945	50933
1	250122694	6946	49926
1	250160346	6947	50615
1	250197709	6948	49926
1	250235650	6949	51410
1	250273351	6950	50615
1	250310954	6951	50721
1	250348149	6952	49078
1	250385489	6953	50456
1	250422893	6954	50509
1	250460231	6955	49926
1	250497649	6956	50827
1	250535151	6957	50350
1	250573022	6958	50774
1	250610332	6959	50297
1	250647808	6960	50668
1	250685295	6961	50138
1	250722822	6962	50562
1	250759683	6963	49873
1	250797453	6964	50350
1	250834823	6965	50721
1	250872317	6966	50138
1	250909988	6967	50085
1	250947237	6968	50350
1	250984720	6969	50509
1	251022189	6970	50562
1	251059756	6971	50032
1	251097149	6972	50403
1	251135017	6973	51198
1	251172536	6974	50138
1	251210420	6975	51092
1	251248280	6976	50827
1	251286276	6977	51410
1	251323627	6978	49661
1	251361164	6979	50509
1	251398464	6980	49820
1	251436276	6981	51516
1	251474008	6982	50509
1	251511847	6983	50668
1	251549437	6984	50509
1	251586978	6985	50774
1	251624345	6986	50032
1	251662148	6987	50721
1	251700051	6988	51092
1	251737854	6989	50668
1	251775171	6990	50456
1	251812458	6991	49926
1	251849764	6992	49820
1	251886681	6993	49767
1	251924194	6994	50032
1	251962003	6995	51410
1	251999325	6996	49926
1	252037192	6997	51145
1	252074700	6998	50297
1	252112199	6999	50032
1	252149597	7000	49979
1	252186676	7001	50403
1	252224217	7002	50138
1	252261846	7003	50615
1	252299307	7004	50403
1	252337195	7005	51357
1	252375174	7006	50880
1	252412687	7007	50350
1	252450213	7008	50350
1	252488021	7009	50403
1	252525618	7010	50774
1	252563126	7011	50668
1	252600455	7012	49661
1	252637934	7013	50668
1	252675745	7014	50668
1	252713055	7015	49873
1	252750657	7016	50615
1	252788518	7017	50827
1	252825705	7018	49979
1	252863658	7019	51092
1	252901130	7020	50721
1	252938711	7021	50085
1	252976698	7022	51039
1	253013944	7023	50138
1	253051920	7024	50986
1	253089907	7025	51463
1	253128059	7026	51410
1	253165702	7027	50403
1	253203240	7028	50403
1	253241275	7029	51304
1	253278954	7030	50350
1	253316380	7031	50297
1	253354485	7032	51092
1	253391612	7033	49820
1	253429318	7034	51092
1	253466625	7035	50456
1	253504877	7036	51410
1	253542880	7037	50350
1	253580157	7038	50297
1	253617494	7039	50668
1	253655076	7040	50509
1	253693037	7041	50721
1	253731062	7042	51410
1	253768836	7043	50509
1	253806794	7044	50615
1	253843675	7045	50138
1	253881358	7046	50244
1	253918962	7047	50456
1	253956484	7048	50668
1	253994337	7049	50668
1	254032309	7050	51569
1	254070386	7051	50880
1	254108071	7052	50350
1	254145711	7053	50456
1	254183136	7054	50403
1	254220677	7055	50880
1	254258507	7056	50297
1	254295940	7057	50403
1	254333540	7058	50827
1	254370839	7059	49820
1	254408658	7060	50986
1	254446065	7061	49502
1	254483922	7062	51039
1	254521934	7063	50986
1	254559322	7064	50350
1	254596876	7065	51039
1	254634278	7066	49979
1	254672381	7067	51304
1	254710014	7068	50032
1	254748162	7069	51728
1	254785958	7070	50509
1	254823793	7071	50880
1	254861828	7072	51145
1	254899351	7073	50138
1	254937855	7074	51887
1	254975533	7075	50509
1	255012772	7076	50032
1	255050906	7077	50880
1	255088755	7078	51145
1	255126383	7079	50774
1	255164483	7080	51410
1	255201603	7081	49237
1	255239575	7082	51039
1	255277602	7083	51198
1	255315570	7084	51092
1	255353413	7085	50986
1	255391171	7086	51516
1	255428692	7087	49661
1	255466280	7088	50509
1	255503550	7089	50032
1	255541715	7090	51675
1	255579340	7091	50085
1	255616506	7092	50244
1	255654120	7093	50138
1	255692175	7094	51516
1	255729403	7095	49608
1	255767232	7096	51145
1	255804618	7097	49979
1	255842292	7098	51304
1	255879687	7099	49608
1	255917716	7100	51675
1	255955352	7101	49926
1	255992900	7102	50774
1	256030601	7103	50615
1	256068404	7104	50827
1	256105713	7105	50138
1	256143531	7106	50827
1	256181235	7107	50827
1	256219113	7108	50774
1	256256394	7109	49767
1	256294470	7110	51251
1	256332143	7111	50721
1	256369732	7112	50933
1	256407357	7113	50721
1	256444905	7114	50085
1	256482884	7115	50721
1	256520383	7116	51145
1	256558716	7117	51622
1	256595895	7118	49449
1	256633547	7119	50721
1	256670812	7120	50297
1	256708645	7121	51092
1	256746196	7122	50085
1	256784110	7123	51039
1	256822305	7124	51993
1	256859217	7125	48972
1	256896823	7126	50403
1	256934601	7127	50933
1	256971594	7128	50244
1	257009366	7129	50138
1	257047096	7130	51145
1	257084582	7131	50403
1	257122270	7132	50880
1	257159698	7133	50032
1	257197112	7134	50350
1	257234897	7135	50668
1	257272941	7136	50986
1	257310621	7137	50615
1	257348310	7138	50721
1	257385816	7139	50880
1	257423740	7140	50456
1	257461009	7141	50403
1	257498702	7142	50880
1	257536622	7143	50774
1	257574106	7144	49979
1	257612132	7145	51463