version 2
run QLearnCC-1-20100908-23:26:21-5556
attr configname QLearnCC
attr datetime 20100908-23:26:21
attr experiment QLearnCC
attr inifile D:/Developement/Oversim2/multic/simulations/omnetpp.ini
attr iterationvars $nhops=3
attr iterationvars2 "$nhops=3, $repetition=0"
attr measurement $nhops=3
attr network oversim.underlay.simpleunderlay.SimpleUnderlayNetwork
attr nhops 3
attr processid 5556
attr repetition 0
attr replication #0
attr resultdir results
attr runnumber 1
attr seedset 1

vector 1  SimpleUnderlayNetwork.globalObserver.globalStatistics  incoming_bytes  ETV
vector 2  SimpleUnderlayNetwork.globalObserver.globalStatistics  drops  ETV
vector 3  SimpleUnderlayNetwork.globalObserver.globalStatistics  delayed_acks  ETV
vector 4  SimpleUnderlayNetwork.globalObserver.globalStatistics  timetotimeouts  ETV
vector 5  SimpleUnderlayNetwork.globalObserver.globalStatistics  9rateOf1To0  ETV
vector 6  SimpleUnderlayNetwork.globalObserver.globalStatistics  max9RateOf1To0  ETV
vector 7  SimpleUnderlayNetwork.globalObserver.globalStatistics  9rateOf1To1  ETV
vector 8  SimpleUnderlayNetwork.globalObserver.globalStatistics  max9RateOf1To1  ETV
vector 9  SimpleUnderlayNetwork.globalObserver.globalStatistics  9rateOf1To2  ETV
vector 10  SimpleUnderlayNetwork.globalObserver.globalStatistics  max9RateOf1To2  ETV
vector 11  SimpleUnderlayNetwork.globalObserver.globalStatistics  9rateOf1To3  ETV
vector 12  SimpleUnderlayNetwork.globalObserver.globalStatistics  max9RateOf1To3  ETV
vector 13  SimpleUnderlayNetwork.globalObserver.globalStatistics  9rateOf1To4  ETV
vector 14  SimpleUnderlayNetwork.globalObserver.globalStatistics  max9RateOf1To4  ETV
vector 15  SimpleUnderlayNetwork.globalObserver.globalStatistics  9rateOf1To5  ETV
vector 16  SimpleUnderlayNetwork.globalObserver.globalStatistics  max9RateOf1To5  ETV
vector 17  SimpleUnderlayNetwork.globalObserver.globalStatistics  9rateOf1To6  ETV
vector 18  SimpleUnderlayNetwork.globalObserver.globalStatistics  max9RateOf1To6  ETV
vector 19  SimpleUnderlayNetwork.globalObserver.globalStatistics  9rateOf1To7  ETV
vector 20  SimpleUnderlayNetwork.globalObserver.globalStatistics  max9RateOf1To7  ETV
vector 21  SimpleUnderlayNetwork.globalObserver.globalStatistics  9rateOf1To8  ETV
vector 22  SimpleUnderlayNetwork.globalObserver.globalStatistics  max9RateOf1To8  ETV
vector 23  SimpleUnderlayNetwork.globalObserver.globalStatistics  9rateOf1To9  ETV
vector 24  SimpleUnderlayNetwork.globalObserver.globalStatistics  max9RateOf1To9  ETV
vector 25  SimpleUnderlayNetwork.globalObserver.globalStatistics  1rate  ETV
vector 26  SimpleUnderlayNetwork.globalObserver.globalStatistics  max2Rate  ETV
vector 27  SimpleUnderlayNetwork.globalObserver.globalStatistics  "GlobalNodeList: Number of nodes"  ETV
vector 28  SimpleUnderlayNetwork.globalObserver.globalStatistics  "GlobalNodeList: Number of bootstrapped malicious nodes"  ETV
1	253109748	6017	85701
1	253153843	6018	85966
1	253197200	6019	84111
1	253241141	6020	84694
1	253284864	6021	84906
1	253328755	6022	84959
1	253372941	6023	86496
1	253416324	6024	82892
1	253460169	6025	85542
1	253503964	6026	85489
1	253548026	6027	84853
1	253592035	6028	85913
1	253635720	6029	83899
1	253680055	6030	86973
1	253723943	6031	84959
1	253767474	6032	84058
1	253811250	6033	84800
1	253855092	6034	85648
1	253899128	6035	85224
1	253942727	6036	84641
1	253986744	6037	85595
1	254030268	6038	84164
1	254073450	6039	83581
1	254117443	6040	86072
1	254161338	6041	84694
1	254205311	6042	86072
1	254248686	6043	83634
1	254292725	6044	85860
1	254336484	6045	84217
1	254380472	6046	85171
1	254424494	6047	86019
1	254468260	6048	84111
1	254512627	6049	87397
1	254556033	6050	83740
1	254600256	6051	85966
1	254644238	6052	85489
1	254688461	6053	85754
1	254732313	6054	86125
1	254775850	6055	83687
1	254819842	6056	85489
1	254863271	6057	84694
1	254906949	6058	84429
1	254950587	6059	84217
1	254994422	6060	85118
1	255038110	6061	84694
1	255082371	6062	86443
1	255126346	6063	85118
1	255170219	6064	84323
1	255214282	6065	86549
1	255258144	6066	84959
1	255301814	6067	84429
1	255345804	6068	86072
1	255389733	6069	84535
1	255433980	6070	85966
1	255477837	6071	84906
1	255522055	6072	86178
1	255566052	6073	85330
1	255609592	6074	84482
1	255653338	6075	84694
1	255697212	6076	85542
1	255741141	6077	85065
1	255785006	6078	85489
1	255829065	6079	84853
1	255872541	6080	84376
1	255916475	6081	85860
1	255960492	6082	85171
1	256004518	6083	85171
1	256047974	6084	84853
1	256091899	6085	85065
1	256135572	6086	84588
1	256179079	6087	84694
1	256223014	6088	85224
1	256267063	6089	85701
1	256310644	6090	84694
1	256354303	6091	84217
1	256398159	6092	85860
1	256442109	6093	84588
1	256486030	6094	85754
1	256529813	6095	84270
1	256573622	6096	85171
1	256617422	6097	85542
1	256661327	6098	85118
1	256705195	6099	85754
1	256748784	6100	83793
1	256792918	6101	86072
1	256836599	6102	84747
1	256880527	6103	84641
1	256924537	6104	86125
1	256968527	6105	85489
1	257011979	6106	84323
1	257055762	6107	85065
1	257099789	6108	85171
1	257143980	6109	85383
1	257188091	6110	86019
1	257231607	6111	83846
1	257275550	6112	85966
1	257319106	6113	83952
1	257362837	6114	85330
1	257406901	6115	85383
1	257450670	6116	85065
1	257494527	6117	84482
1	257538357	6118	85171
1	257582252	6119	85224
1	257625723	6120	84164
1	257669434	6121	85489
1	257712754	6122	83581
1	257756470	6123	84747
1	257800191	6124	84959
1	257844129	6125	85171
1	257887856	6126	84906
1	257931600	6127	85436
1	257975458	6128	84906
1	258018710	6129	83210
1	258062651	6130	85648
1	258106168	6131	83634
1	258149717	6132	84747
1	258193539	6133	85224
1	258237329	6134	85277
1	258281326	6135	85171
1	258325101	6136	85277
1	258368811	6137	84270
1	258412648	6138	85542
1	258456461	6139	84535
1	258500321	6140	85383
1	258544077	6141	84800
1	258588443	6142	86125
1	258632454	6143	85913
1	258676126	6144	84800
1	258720107	6145	84005
1	258763687	6146	84535
1	258807598	6147	85489
1	258851335	6148	85118
1	258895477	6149	85807
1	258939265	6150	84747
1	258983026	6151	84747
1	259027031	6152	86496
1	259070887	6153	84005
1	259115025	6154	85648
1	259159113	6155	85807
1	259203160	6156	85542
1	259247020	6157	84694
1	259290857	6158	85383
1	259334613	6159	84588
1	259378521	6160	85807
1	259422298	6161	84429
1	259466234	6162	85383
1	259510064	6163	84906
1	259554302	6164	85860
1	259597904	6165	85277
1	259641481	6166	84270
1	259685419	6167	85277
1	259729354	6168	85012
1	259773207	6169	85065
1	259817135	6170	85648
1	259860943	6171	84906
1	259904601	6172	85118
1	259948415	6173	85489
1	259991959	6174	83581
1	260036121	6175	85648
1	260080379	6176	85913
1	260124408	6177	85277
1	260168384	6178	85436
1	260212370	6179	85542
1	260256321	6180	85012
1	260300128	6181	85966
1	260343960	6182	84906
1	260387871	6183	84853
1	260431655	6184	84429
1	260475593	6185	85542
1	260519280	6186	84747
1	260563267	6187	84800
1	260606994	6188	85330
1	260650796	6189	84694
1	260694506	6190	84270
1	260738684	6191	86337
1	260782155	6192	84005
1	260826221	6193	86443
1	260869802	6194	84111
1	260913536	6195	84853
1	260957293	6196	84906
1	261000706	6197	83952
1	261044634	6198	85648
1	261088143	6199	83687
1	261131828	6200	85118
1	261175569	6201	84800
1	261219599	6202	85277
1	261263100	6203	83581
1	261306894	6204	86125
1	261350446	6205	84270
1	261394134	6206	85012
1	261437731	6207	83846
1	261481581	6208	85171
1	261525557	6209	85701
1	261569084	6210	85065
1	261612929	6211	84164
1	261656496	6212	84959
1	261700611	6213	85171
1	261744414	6214	85383
1	261787748	6215	84058
1	261831416	6216	83899
1	261875253	6217	85966
1	261918835	6218	84111
1	261962591	6219	86072
1	262006311	6220	83793
1	262049938	6221	84429
1	262093778	6222	86443
1	262137482	6223	82998
1	262181457	6224	85542
1	262225188	6225	85065
1	262269283	6226	85383
1	262313188	6227	85436
1	262357079	6228	85383
1	262400828	6229	84853
1	262444661	6230	85383
1	262488623	6231	84535
1	262532132	6232	84641
1	262575919	6233	85012
1	262619487	6234	84906
1	262663093	6235	83952
1	262707028	6236	86019
1	262750981	6237	84853
1	262794743	6238	83952
1	262838575	6239	86125
1	262882410	6240	84959
1	262926378	6241	85966
1	262970147	6242	84853
1	263013735	6243	84058
1	263057340	6244	84482
1	263101365	6245	86019
1	263145135	6246	83899
1	263188862	6247	85860
1	263232908	6248	83581
1	263276837	6249	86708
1	263320729	6250	84429
1	263364555	6251	85489
1	263408269	6252	85966
1	263452230	6253	83687
1	263495689	6254	84853
1	263539839	6255	85860
1	263583555	6256	84376
1	263627434	6257	85012
1	263671071	6258	84906
1	263714990	6259	84959
1	263758541	6260	84217
1	263802629	6261	86390
1	263846282	6262	84005
1	263890308	6263	85701
1	263933759	6264	84164
1	263977552	6265	86072
1	264021072	6266	83369
1	264065294	6267	85966
1	264108779	6268	84111
1	264152605	6269	85383
1	264196224	6270	84747
1	264239770	6271	84641
1	264283687	6272	84906
1	264327416	6273	85012
1	264370697	6274	83846
1	264414451	6275	84535
1	264458198	6276	84959
1	264501716	6277	84747
1	264545680	6278	84959
1	264589263	6279	84853
1	264632812	6280	84482
1	264676644	6281	84376
1	264720321	6282	85754
1	264763857	6283	83846
1	264807912	6284	85860
1	264851511	6285	84482
1	264895068	6286	84164
1	264938982	6287	86019
1	264982583	6288	84747
1	265026376	6289	85330
1	265070022	6290	84058
1	265113786	6291	85171
1	265157389	6292	84429
1	265201340	6293	85171
1	265245113	6294	85224
1	265288608	6295	84906
1	265332217	6296	84217
1	265376000	6297	85330
1	265419462	6298	84270
1	265462830	6299	83793
1	265506579	6300	85277
1	265550473	6301	84641
1	265593861	6302	84058
1	265637222	6303	84588
1	265681205	6304	84959
1	265724572	6305	83899
1	265768266	6306	85595
1	265812250	6307	85277
1	265856011	6308	85118
1	265899731	6309	84694
1	265943300	6310	84429
1	265987538	6311	86284
1	266031478	6312	84906
1	266075220	6313	85489
1	266118941	6314	83634
1	266162651	6315	85754
1	266206854	6316	85754
1	266250415	6317	85012
1	266293978	6318	84217
1	266337961	6319	85224
1	266381601	6320	84959
1	266425075	6321	83899
1	266468669	6322	84747
1	266512237	6323	84588
1	266556251	6324	85277
1	266600031	6325	85012
1	266643853	6326	84482
1	266687930	6327	86496
1	266731874	6328	84747
1	266775783	6329	85171
1	266819702	6330	84906
1	266863745	6331	86284
1	266907336	6332	85224
1	266951554	6333	84853
1	266995349	6334	84376
1	267039411	6335	86125
1	267083658	6336	85648
1	267127490	6337	85383
1	267171792	6338	86655
1	267215302	6339	84058
1	267259053	6340	84906
1	267302693	6341	84588
1	267346886	6342	86231
1	267390302	6343	83687
1	267434252	6344	85277
1	267477967	6345	84906
1	267522084	6346	85542
1	267565781	6347	84323
1	267609698	6348	85330
1	267653459	6349	85224
1	267697626	6350	85330
1	267741612	6351	86072
1	267785422	6352	84853
1	267829144	6353	84641
1	267872928	6354	84800
1	267917018	6355	86814
1	267960986	6356	84641
1	268004587	6357	84535
1	268048713	6358	85330
1	268092514	6359	85489
1	268136958	6360	85489
1	268181181	6361	87079
1	268224872	6362	84535
1	268268412	6363	84323
1	268312052	6364	84641
1	268356161	6365	85277
1	268400224	6366	86231
1	268444096	6367	86072
1	268488167	6368	84588
1	268531806	6369	84323
1	268575728	6370	85701
1	268619756	6371	85595
1	268663571	6372	84482
1	268707421	6373	84588
1	268751547	6374	86072
1	268795444	6375	85489
1	268839071	6376	85012
1	268883196	6377	85860
1	268926656	6378	84164
1	268970458	6379	84641
1	269014597	6380	85383
1	269058587	6381	85330
1	269102344	6382	85807
1	269146356	6383	84270
1	269190376	6384	85648
1	269234486	6385	85860
1	269278290	6386	84959
1	269322207	6387	84535
1	269366244	6388	85701
1	269410141	6389	85012
1	269454157	6390	85807
1	269498056	6391	84800
1	269541724	6392	83581
1	269585828	6393	86920
1	269629547	6394	84906
1	269673543	6395	85171
1	269717214	6396	84376
1	269760758	6397	83581
1	269804358	6398	85860
1	269848064	6399	85012
1	269891999	6400	84323
1	269935821	6401	85012
1	269979711	6402	84747
1	270023797	6403	87026
1	270067113	6404	82892
1	270111004	6405	84906
1	270154427	6406	84376
1	270198024	6407	84535
1	270241336	6408	84111
1	270284736	6409	83210
1	270328500	6410	85595
1	270372193	6411	84959
1	270415910	6412	85330
1	270459826	6413	84747
1	270503512	6414	84270
1	270546805	6415	83316
1	270590924	6416	86761
1	270634463	6417	84429
1	270678187	6418	84323
1	270721781	6419	84906
1	270765856	6420	85436
1	270809706	6421	85065
1	270853492	6422	85913
1	270897534	6423	84959
1	270941319	6424	85065
1	270985339	6425	84800
1	271028600	6426	83846
1	271072378	6427	85648
1	271115867	6428	84270
1	271159837	6429	85171
1	271203216	6430	84800
1	271246829	6431	84270
1	271290509	6432	84641
1	271333983	6433	84376
1	271377449	6434	84270
1	271421677	6435	85542
1	271465218	6436	85277
1	271509053	6437	85436
1	271552565	6438	83263
1	271596009	6439	84535
1	271639794	6440	85489
1	271683204	6441	83899
1	271727193	6442	85913
1	271770852	6443	84747
1	271814582	6444	84694
1	271858132	6445	84164
1	271901651	6446	84429
1	271945189	6447	85277
1	271988922	6448	84482
1	272032824	6449	85330
1	272076204	6450	83846
1	272120156	6451	86125
1	272163828	6452	84217
1	272207951	6453	85595
1	272251910	6454	85065
1	272295726	6455	85648
1	272339551	6456	85118
1	272383621	6457	86072
1	272427452	6458	84588
1	272471481	6459	85542
1	272515135	6460	84535
1	272559238	6461	85436
1	272602906	6462	84853
1	272646164	6463	83846
1	272690141	6464	85648
1	272733608	6465	83687
1	272777574	6466	85542
1	272821194	6467	85118
1	272865378	6468	85383
1	272909245	6469	85489
1	272953091	6470	84376
1	272996984	6471	85489
1	273040897	6472	85330
1	273084998	6473	86072
1	273128716	6474	84694
1	273172139	6475	84270
1	273216118	6476	85701
1	273260235	6477	85489
1	273303701	6478	84164
1	273347316	6479	84217
1	273390958	6480	85065
1	273434638	6481	84747
1	273478473	6482	85860
1	273522507	6483	84747
1	273566257	6484	85065
1	273610460	6485	85966
1	273654047	6486	84217
1	273698029	6487	85224
1	273742207	6488	85860
1	273786060	6489	85277
1	273830239	6490	84959
1	273873602	6491	84694
1	273917340	6492	85330
1	273960749	6493	83687
1	274004839	6494	85913
1	274048900	6495	85277
1	274092952	6496	84800
1	274136793	6497	86072
1	274180516	6498	85065
1	274224388	6499	85171
1	274268140	6500	84959
1	274311581	6501	82786
1	274355176	6502	85595
1	274399198	6503	84906
1	274443053	6504	85118
1	274486743	6505	85489
1	274530655	6506	84641
1	274574390	6507	84482
1	274618161	6508	85171
1	274662362	6509	85542
1	274705941	6510	84535
1	274749975	6511	85754
1	274793640	6512	84588
1	274837533	6513	85754
1	274881477	6514	84694
1	274925064	6515	85065
1	274969019	6516	84482
1	275012989	6517	86019
1	275056671	6518	84429
1	275100228	6519	83740
1	275144177	6520	85542
1	275188242	6521	85489
1	275232249	6522	85224
1	275276029	6523	85277
1	275319752	6524	84800
1	275363441	6525	84376
1	275407287	6526	85065
1	275450797	6527	84535
1	275494572	6528	84641
1	275538792	6529	86178
1	275582341	6530	84217
1	275626012	6531	84588
1	275669946	6532	84959
1	275713968	6533	86125
1	275757868	6534	84588
1	275801487	6535	84747
1	275845138	6536	84800
1	275888900	6537	84376
1	275932654	6538	85860
1	275976365	6539	84588
1	276020342	6540	85330
1	276064453	6541	85648
1	276108360	6542	85277
1	276152175	6543	84323
1	276196721	6544	87238
1	276240617	6545	84694
1	276284584	6546	85171
1	276328314	6547	84694
1	276372367	6548	85489
1	276416330	6549	86231
1	276460040	6550	83952
1	276503896	6551	85383
1	276547808	6552	83952
1	276591926	6553	86390
1	276635834	6554	85224
1	276679060	6555	83899
1	276723096	6556	85224
1	276766660	6557	84111
1	276810464	6558	85330
1	276854362	6559	84482
1	276898305	6560	86973
1	276941809	6561	83104
1	276985756	6562	85648
1	277029533	6563	85065
1	277073597	6564	85277
1	277117791	6565	85436
1	277161455	6566	84641
1	277205121	6567	84959
1	277248830	6568	85224
1	277292471	6569	84323
1	277336310	6570	85807
1	277380102	6571	84641
1	277423799	6572	84641
1	277467318	6573	84641
1	277510891	6574	83846
1	277554347	6575	84588
1	277598354	6576	85860
1	277641807	6577	83581
1	277685396	6578	84906
1	277729299	6579	84747
1	277772982	6580	84959
1	277816807	6581	84853
1	277860851	6582	85171
1	277904980	6583	86655
1	277948572	6584	84694
1	277992404	6585	84747
1	278036342	6586	85118
1	278080599	6587	85754
1	278124223	6588	85012
1	278168311	6589	85436
1	278211661	6590	84482
1	278255757	6591	85754
1	278298999	6592	83157
1	278343142	6593	85489
1	278386797	6594	84906
1	278430485	6595	84959
1	278474708	6596	85542
1	278518273	6597	85065
1	278562165	6598	84217
1	278605941	6599	85489
1	278649965	6600	84959
1	278693470	6601	84800
1	278737222	6602	85330
1	278781253	6603	85171
1	278825119	6604	84853
1	278869458	6605	86337
1	278913401	6606	85383
1	278957531	6607	85542
1	279001280	6608	84164
1	279045378	6609	86496
1	279089568	6610	84959
1	279133685	6611	86390
1	279177769	6612	85065
1	279221751	6613	85595
1	279265485	6614	84588
1	279309207	6615	84800
1	279353405	6616	85542
1	279397223	6617	85118
1	279441181	6618	85436
1	279485208	6619	86231
1	279529323	6620	85277
1	279573299	6621	84906
1	279616900	6622	84376
1	279660450	6623	83899
1	279704320	6624	86019
1	279748324	6625	85118
1	279792435	6626	85860
1	279835995	6627	84111
1	279880341	6628	86655
1	279924312	6629	84588
1	279968249	6630	85065
1	280012391	6631	86337
1	280056215	6632	84959
1	280099717	6633	83687
1	280143624	6634	86019
1	280187495	6635	84535
1	280231365	6636	85913
1	280275356	6637	84959
1	280319672	6638	85913
1	280363816	6639	85330
1	280407385	6640	84800
1	280451408	6641	85383
1	280495180	6642	85171
1	280539117	6643	84429
1	280583209	6644	86549
1	280627053	6645	84747
1	280671068	6646	84641
1	280715154	6647	86708
1	280758769	6648	83581
1	280803006	6649	85330
1	280846993	6650	85330
1	280891384	6651	86920
1	280935066	6652	84005
1	280979239	6653	86125
1	281023366	6654	85542
1	281067009	6655	84800
1	281111110	6656	84535
1	281155262	6657	86443
1	281198847	6658	84694
1	281242756	6659	84641
1	281286640	6660	85171
1	281330421	6661	84906
1	281374364	6662	85648
1	281418270	6663	85330
1	281462210	6664	85065
1	281506112	6665	85489
1	281549817	6666	84323
1	281593406	6667	84376
1	281637291	6668	85277
1	281680942	6669	85171
1	281724867	6670	84906
1	281768803	6671	86125
1	281812496	6672	83581
1	281856499	6673	86019
1	281900153	6674	84111
1	281944139	6675	85277
1	281987819	6676	84641
1	282031310	6677	84853
1	282075257	6678	85383
1	282119013	6679	85065
1	282162760	6680	84641
1	282206652	6681	84376
1	282250343	6682	85277
1	282294050	6683	84906
1	282337818	6684	84376
1	282381533	6685	85436
1	282425357	6686	85171
1	282468665	6687	84164
1	282512280	6688	84588
1	282556307	6689	84800
1	282600199	6690	85648
1	282644248	6691	85754
1	282688329	6692	85436
1	282731595	6693	83157
1	282775698	6694	85860
1	282819599	6695	85489
1	282863394	6696	84535
1	282907214	6697	85118
1	282951431	6698	85595
1	282994989	6699	84694
1	283038691	6700	85595
1	283082704	6701	85118
1	283126328	6702	84164
1	283170025	6703	85277
1	283214016	6704	85065
1	283257769	6705	85118
1	283301661	6706	84853
1	283345270	6707	84694
1	283389016	6708	85860
1	283432965	6709	84429
1	283476645	6710	85012
1	283520413	6711	84747
1	283564420	6712	85595
1	283608415	6713	85701
1	283652108	6714	84429
1	283695940	6715	84959
1	283739661	6716	84853
1	283783673	6717	85224
1	283827693	6718	85489
1	283871552	6719	85648
1	283915023	6720	84058
1	283958694	6721	84111
1	284002482	6722	85171
1	284046293	6723	85436
1	284089890	6724	84641
1	284133798	6725	84747
1	284177707	6726	86019
1	284221230	6727	83899
1	284264951	6728	84906
1	284308526	6729	84641
1	284352387	6730	84853
1	284396355	6731	84906
1	284440487	6732	87026
1	284484299	6733	84058
1	284528364	6734	85330
1	284572247	6735	85330
1	284616099	6736	85171
1	284660219	6737	85754
1	284704062	6738	85012
1	284747855	6739	84800
1	284791440	6740	85330
1	284835414	6741	84800
1	284879100	6742	84535
1	284922971	6743	86019
1	284966626	6744	83952
1	285010536	6745	85171
1	285054115	6746	84535
1	285097811	6747	84588
1	285141673	6748	85701
1	285185371	6749	84323
1	285229290	6750	86231
1	285272961	6751	83581
1	285317272	6752	86973
1	285361067	6753	84058
1	285404835	6754	85648
1	285448524	6755	84959
1	285492605	6756	84641
1	285536561	6757	85489
1	285580330	6758	84747
1	285624055	6759	85171
1	285667959	6760	84906
1	285712180	6761	86602
1	285756128	6762	84959
1	285799644	6763	84270
1	285843933	6764	86019
1	285887584	6765	84747
1	285931137	6766	84482
1	285975048	6767	84747
1	286018729	6768	85224
1	286062578	6769	85383
1	286106268	6770	84217
1	286150072	6771	85277
1	286193553	6772	83316
1	286237541	6773	85701
1	286281327	6774	85171
1	286325023	6775	85224
1	286368972	6776	85012
1	286413302	6777	85966
1	286457293	6778	85754
1	286501007	6779	84111
1	286545033	6780	85754
1	286588907	6781	84800
1	286632555	6782	84747
1	286676362	6783	85118
1	286720392	6784	85224
1	286764016	6785	84217
1	286808366	6786	86602
1	286852064	6787	84800
1	286895755	6788	84111
1	286939574	6789	85383
1	286983298	6790	84535
1	287026880	6791	84747
1	287070557	6792	84323
1	287114580	6793	85330
1	287158239	6794	85330
1	287202143	6795	85277
1	287245778	6796	84164
1	287289811	6797	85330
1	287334090	6798	86920
1	287377662	6799	83634
1	287421633	6800	85860
1	287465711	6801	85171
1	287509611	6802	85171
1	287553888	6803	85966
1	287597593	6804	85277
1	287641588	6805	85118
1	287685647	6806	85065
1	287729702	6807	85436
1	287772983	6808	84111
1	287817096	6809	85224
1	287860607	6810	84482
1	287904631	6811	85489
1	287948771	6812	86019
1	287992465	6813	84588
1	288036008	6814	84641
1	288079470	6815	83422
1	288123527	6816	86019
1	288167600	6817	85383
1	288211351	6818	84747
1	288255649	6819	85966
1	288299806	6820	86019
1	288343556	6821	85171
1	288387511	6822	85224
1	288431161	6823	84376
1	288475408	6824	85860
1	288519242	6825	85065
1	288563029	6826	84853
1	288606742	6827	85065
1	288650533	6828	85224
1	288693926	6829	83740
1	288737553	6830	84217
1	288781129	6831	84535
1	288824818	6832	84906
1	288868981	6833	86019
1	288912520	6834	83687
1	288956280	6835	85595
1	289000331	6836	85436
1	289043950	6837	84270
1	289087929	6838	85754
1	289131345	6839	83899
1	289175047	6840	83793
1	289218658	6841	84376
1	289262510	6842	85807
1	289306162	6843	84800
1	289350019	6844	85012
1	289393792	6845	84058
1	289437275	6846	85171
1	289481356	6847	85383
1	289525463	6848	86125
1	289569230	6849	84005
1	289613561	6850	86019
1	289657252	6851	85224
1	289701160	6852	85436
1	289745064	6853	84111
1	289788989	6854	85436
1	289832871	6855	85224
1	289876816	6856	85860
1	289920546	6857	84217
1	289964089	6858	85436
1	290007590	6859	83210
1	290051304	6860	85171
1	290095071	6861	84906
1	290139078	6862	85542
1	290182882	6863	84694
1	290227221	6864	86708
1	290270793	6865	84111
1	290314597	6866	85330
1	290358448	6867	84376
1	290402750	6868	86549
1	290446528	6869	84482
1	290490704	6870	85224
1	290534645	6871	86178
1	290578244	6872	83369
1	290621660	6873	85065
1	290665435	6874	84694
1	290708909	6875	84482
1	290752839	6876	84588
1	290796293	6877	84800
1	290839854	6878	84694
1	290883616	6879	85065
1	290927445	6880	84747
1	290971374	6881	85224
1	291014982	6882	85330
1	291058605	6883	84482
1	291102308	6884	84906
1	291146243	6885	85595
1	291189709	6886	84164
1	291233437	6887	84959
1	291277352	6888	84376
1	291321218	6889	86019
1	291364793	6890	83581
1	291408536	6891	84906
1	291452460	6892	85595
1	291496251	6893	85171
1	291540028	6894	84959
1	291583997	6895	85065
1	291627721	6896	84641
1	291671549	6897	85012
1	291715735	6898	86231
1	291759035	6899	83846
1	291802681	6900	84800
1	291846616	6901	84800
1	291890521	6902	85224
1	291934283	6903	85330
1	291977891	6904	84906
1	292021643	6905	84959
1	292065477	6906	84747
1	292109154	6907	84853
1	292152842	6908	83846
1	292196325	6909	84429
1	292240102	6910	85542
1	292283834	6911	85012
1	292327684	6912	83899
1	292371559	6913	85489
1	292415360	6914	84800
1	292459174	6915	85807
1	292503058	6916	84800
1	292546583	6917	84270
1	292590104	6918	83740
1	292633918	6919	85913
1	292677709	6920	84694
1	292721541	6921	85171
1	292765219	6922	84694
1	292809076	6923	85383
1	292852862	6924	84482
1	292896864	6925	85542
1	292940483	6926	84058
1	292984321	6927	85118
1	293027713	6928	84058
1	293071605	6929	85330
1	293115229	6930	84270
1	293159320	6931	85489
1	293202789	6932	83793
1	293246539	6933	84959
1	293290406	6934	85118
1	293334553	6935	85701
1	293378203	6936	83793
1	293422310	6937	86337
1	293466099	6938	84535
1	293510045	6939	85012
1	293554243	6940	85860
1	293598077	6941	85860
1	293642099	6942	84588
1	293685422	6943	84323
1	293729340	6944	85277
1	293772962	6945	84641
1	293816883	6946	84376
1	293860695	6947	85807
1	293904280	6948	83740
1	293948349	6949	86443
1	293991824	6950	83687
1	294035881	6951	86072
1	294079863	6952	85277
1	294123286	6953	84535
1	294167287	6954	84588
1	294211552	6955	86284
1	294255498	6956	85330
1	294299080	6957	85224
1	294342768	6958	84482
1	294386640	6959	85330
1	294429894	6960	83899
1	294473488	6961	84217
1	294517237	6962	84800
1	294561305	6963	86284
1	294605078	6964	84694
1	294648714	6965	84164
1	294692386	6966	85224
1	294736268	6967	85171
1	294780212	6968	84747
1	294823683	6969	84853
1	294867475	6970	84800
1	294911164	6971	84535
1	294955287	6972	86708
1	294998812	6973	84217
1	295042594	6974	84058
1	295086351	6975	85118
1	295129944	6976	83952
1	295173768	6977	86019
1	295217311	6978	84747
1	295261439	6979	85807
1	295305089	6980	84853
1	295348821	6981	84429
1	295392615	6982	84959
1	295436456	6983	85489
1	295480145	6984	83846
1	295523946	6985	86178
1	295567497	6986	83528
1	295610975	6987	84164
1	295655080	6988	86231
1	295698962	6989	85118
1	295742684	6990	84747
1	295786249	6991	85171
1	295830265	6992	85171
1	295874151	6993	85171
1	295917189	6994	82733
1	295961337	6995	86761
1	296004874	6996	83952
1	296048637	6997	85012
1	296092320	6998	84376
1	296136101	6999	84853
1	296179934	7000	84588
1	296224032	7001	85648
1	296267867	7002	85754
1	296311563	7003	84694
1	296355480	7004	84959
1	296399096	7005	84959
1	296443221	7006	85595
1	296486798	7007	84482
1	296530791	7008	85065
1	296574584	7009	84906
1	296618204	7010	84270
1	296662609	7011	86284
1	296706575	7012	85012
1	296750361	7013	85118
1	296794528	7014	86072
1	296838250	7015	84694
1	296882342	7016	85277
1	296926110	7017	84800
1	296969938	7018	85171
1	297013901	7019	85277
1	297057698	7020	85118
1	297101841	7021	85648
1	297145858	7022	84906
1	297189728	7023	86337
1	297233508	7024	84535
1	297277533	7025	85489
1	297321547	7026	85383
1	297365824	7027	85860
1	297409604	7028	84641
1	297453611	7029	86231
1	297497366	7030	84747
1	297541696	7031	86337
1	297585572	7032	84323
1	297629528	7033	85913
1	297673925	7034	86178
1	297717616	7035	84217
1	297761956	7036	86655
1	297805326	7037	83210
1	297849539	7038	86072
1	297892907	7039	84694
1	297936591	7040	84482
1	297980677	7041	86337
1	298024600	7042	85118
1	298068387	7043	84641
1	298112353	7044	85489
1	298156385	7045	85701
1	298199921	7046	84164
1	298243891	7047	85171
1	298288103	7048	86496
1	298332008	7049	84111
1	298375999	7050	85913
1	298420180	7051	86496
1	298463990	7052	84588
1	298507922	7053	84853
1	298551521	7054	85118
1	298595812	7055	85966
1	298639709	7056	85807
1	298683404	7057	83634
1	298727577	7058	86443
1	298771524	7059	85807
1	298815476	7060	85012
1	298858915	7061	84323
1	298903282	7062	85012
1	298947003	7063	86284
1	298991012	7064	84800
1	299035036	7065	85171
1	299078791	7066	84906
1	299122446	7067	85224
1	299166698	7068	86284
1	299210743	7069	84641
1	299254995	7070	86019
1	299298984	7071	85648
1	299342852	7072	85065
1	299386899	7073	85065
1	299430657	7074	85277
1	299474350	7075	84853
1	299517920	7076	83846
1	299561818	7077	86178
1	299605414	7078	84588
1	299649389	7079	84959
1	299693191	7080	84535
1	299737352	7081	86125
1	299781145	7082	84906
1	299825316	7083	86072
1	299869194	7084	84217
1	299913440	7085	86602
1	299957374	7086	84694
1	300001569	7087	86443
1	300045743	7088	85648
1	300089543	7089	84270
1	300133843	7090	86072
1	300177821	7091	85277
1	300222099	7092	85701
1	300266302	7093	86072
1	300310256	7094	85595
1	300353773	7095	83528
1	300397848	7096	85860
1	300442154	7097	86178
1	300486033	7098	84853
1	300529724	7099	84641
1	300573374	7100	84164
1	300617378	7101	85595
1	300661125	7102	84005
1	300705161	7103	86496
1	300748864	7104	83952
1	300793122	7105	86496
1	300837007	7106	83952
1	300881275	7107	86549
1	300924934	7108	83793
1	300969187	7109	86072
1	301012947	7110	84959
1	301057164	7111	86125
1	301100863	7112	84164
1	301145217	7113	85701
1	301189531	7114	86708
1	301233396	7115	83687
1	301277785	7116	85648
1	301321753	7117	85436
1	301365391	7118	84535
1	301409613	7119	85648
1	301453575	7120	85277
1	301497579	7121	85648
1	301541749	7122	86072
1	301585982	7123	85118
1	301629985	7124	84959
1	301673789	7125	84694
1	301717855	7126	85330
1	301761322	7127	84641
1	301805664	7128	85383
1	301849735	7129	85489
1	301893797	7130	85171
1	301937412	7131	84482
1	301981620	7132	85913
1	302025512	7133	85383
1	302069227	7134	84323
1	302113444	7135	86920
1	302157466	7136	85807
1	302201534	7137	84005
1	302245813	7138	86443
1	302289695	7139	85701
1	302333872	7140	84747
1	302378037	7141	85754
1	302422026	7142	85012
1	302466513	7143	87291