version 2
run QLearnCC-0-20100908-23:26:21-5644
attr configname QLearnCC
attr datetime 20100908-23:26:21
attr experiment QLearnCC
attr inifile D:/Developement/Oversim2/multic/simulations/omnetpp.ini
attr iterationvars $nhops=2
attr iterationvars2 "$nhops=2, $repetition=0"
attr measurement $nhops=2
attr network oversim.underlay.simpleunderlay.SimpleUnderlayNetwork
attr nhops 2
attr processid 5644
attr repetition 0
attr replication #0
attr resultdir results
attr runnumber 0
attr seedset 0

vector 1  SimpleUnderlayNetwork.globalObserver.globalStatistics  incoming_bytes  ETV
vector 2  SimpleUnderlayNetwork.globalObserver.globalStatistics  drops  ETV
vector 3  SimpleUnderlayNetwork.globalObserver.globalStatistics  delayed_acks  ETV
vector 4  SimpleUnderlayNetwork.globalObserver.globalStatistics  timetotimeouts  ETV
vector 5  SimpleUnderlayNetwork.globalObserver.globalStatistics  9rateOf1To0  ETV
vector 6  SimpleUnderlayNetwork.globalObserver.globalStatistics  max9RateOf1To0  ETV
vector 7  SimpleUnderlayNetwork.globalObserver.globalStatistics  9rateOf1To1  ETV
vector 8  SimpleUnderlayNetwork.globalObserver.globalStatistics  max9RateOf1To1  ETV
vector 9  SimpleUnderlayNetwork.globalObserver.globalStatistics  9rateOf1To2  ETV
vector 10  SimpleUnderlayNetwork.globalObserver.globalStatistics  max9RateOf1To2  ETV
vector 11  SimpleUnderlayNetwork.globalObserver.globalStatistics  9rateOf1To3  ETV
vector 12  SimpleUnderlayNetwork.globalObserver.globalStatistics  max9RateOf1To3  ETV
vector 13  SimpleUnderlayNetwork.globalObserver.globalStatistics  9rateOf1To4  ETV
vector 14  SimpleUnderlayNetwork.globalObserver.globalStatistics  max9RateOf1To4  ETV
vector 15  SimpleUnderlayNetwork.globalObserver.globalStatistics  9rateOf1To5  ETV
vector 16  SimpleUnderlayNetwork.globalObserver.globalStatistics  max9RateOf1To5  ETV
vector 17  SimpleUnderlayNetwork.globalObserver.globalStatistics  9rateOf1To6  ETV
vector 18  SimpleUnderlayNetwork.globalObserver.globalStatistics  max9RateOf1To6  ETV
vector 19  SimpleUnderlayNetwork.globalObserver.globalStatistics  9rateOf1To7  ETV
vector 20  SimpleUnderlayNetwork.globalObserver.globalStatistics  max9RateOf1To7  ETV
vector 21  SimpleUnderlayNetwork.globalObserver.globalStatistics  9rateOf1To8  ETV
vector 22  SimpleUnderlayNetwork.globalObserver.globalStatistics  max9RateOf1To8  ETV
vector 23  SimpleUnderlayNetwork.globalObserver.globalStatistics  9rateOf1To9  ETV
vector 24  SimpleUnderlayNetwork.globalObserver.globalStatistics  max9RateOf1To9  ETV
vector 25  SimpleUnderlayNetwork.globalObserver.globalStatistics  1rate  ETV
vector 26  SimpleUnderlayNetwork.globalObserver.globalStatistics  max2Rate  ETV
vector 27  SimpleUnderlayNetwork.globalObserver.globalStatistics  "GlobalNodeList: Number of nodes"  ETV
vector 28  SimpleUnderlayNetwork.globalObserver.globalStatistics  "GlobalNodeList: Number of bootstrapped malicious nodes"  ETV
1	321352440	6019	134408
1	321406669	6020	135150
1	321460765	6021	134408
1	321514522	6022	133348
1	321568832	6023	135574
1	321622758	6024	133878
1	321676454	6025	134037
1	321730606	6026	134408
1	321784680	6027	134037
1	321838279	6028	133560
1	321892261	6029	135044
1	321946466	6030	133560
1	322000390	6031	135309
1	322054531	6032	133825
1	322108611	6033	135150
1	322162324	6034	133719
1	322216379	6035	134461
1	322270307	6036	133931
1	322324201	6037	133719
1	322377924	6038	133560
1	322432252	6039	135786
1	322486121	6040	132659
1	322540219	6041	134673
1	322594003	6042	134620
1	322647440	6043	132712
1	322701366	6044	133348
1	322755468	6045	135256
1	322809338	6046	133666
1	322863082	6047	133878
1	322916844	6048	133931
1	322970797	6049	134090
1	323024160	6050	131864
1	323078018	6051	134779
1	323131798	6052	133507
1	323185748	6053	134726
1	323239370	6054	133136
1	323293327	6055	134037
1	323347061	6056	133878
1	323400888	6057	133984
1	323454742	6058	134514
1	323508562	6059	134090
1	323562037	6060	132924
1	323616367	6061	135309
1	323670066	6062	134249
1	323723896	6063	133825
1	323777960	6064	134196
1	323832011	6065	134302
1	323885930	6066	134726
1	323939622	6067	132712
1	323993476	6068	134673
1	324047695	6069	134885
1	324101432	6070	133083
1	324155774	6071	136369
1	324209629	6072	133719
1	324263678	6073	134355
1	324317678	6074	133401
1	324371532	6075	134673
1	324425426	6076	134090
1	324479127	6077	133295
1	324533334	6078	135256
1	324587222	6079	134037
1	324641171	6080	133401
1	324695374	6081	135574
1	324749263	6082	133454
1	324803375	6083	135256
1	324857045	6084	134090
1	324911167	6085	134673
1	324965031	6086	134037
1	325018817	6087	133931
1	325072772	6088	133719
1	325126808	6089	135415
1	325180700	6090	133189
1	325234914	6091	134514
1	325288973	6092	135309
1	325343023	6093	134567
1	325397291	6094	134514
1	325451372	6095	135415
1	325505341	6096	134249
1	325559193	6097	134302
1	325613024	6098	132818
1	325666977	6099	133878
1	325721086	6100	135203
1	325774799	6101	134090
1	325829132	6102	135680
1	325883218	6103	133984
1	325937023	6104	133295
1	325991120	6105	135256
1	326044434	6106	131917
1	326098541	6107	135786
1	326152740	6108	134938
1	326206670	6109	133401
1	326260507	6110	135097
1	326314278	6111	132977
1	326368064	6112	134461
1	326421958	6113	133825
1	326476183	6114	135468
1	326529581	6115	132924
1	326583402	6116	134037
1	326637190	6117	132447
1	326691311	6118	135892
1	326745318	6119	133507
1	326799140	6120	133984
1	326852983	6121	134567
1	326907284	6122	134726
1	326961477	6123	135256
1	327015047	6124	132606
1	327069015	6125	134514
1	327123039	6126	133931
1	327177188	6127	135044
1	327230802	6128	133030
1	327284678	6129	134143
1	327338724	6130	134037
1	327392873	6131	135097
1	327446864	6132	134196
1	327500907	6133	134885
1	327554652	6134	132288
1	327608423	6135	134355
1	327662221	6136	134408
1	327716047	6137	133666
1	327769960	6138	133454
1	327823871	6139	134567
1	327877558	6140	134196
1	327931594	6141	133666
1	327985068	6142	133719
1	328039070	6143	134249
1	328093061	6144	134461
1	328146986	6145	133984
1	328200892	6146	134355
1	328255234	6147	134673
1	328309051	6148	133931
1	328363200	6149	134779
1	328416941	6150	134037
1	328471180	6151	134726
1	328525217	6152	133613
1	328579187	6153	134196
1	328633001	6154	134461
1	328687139	6155	134355
1	328741297	6156	134567
1	328795037	6157	133454
1	328848938	6158	134726
1	328902929	6159	134408
1	328956564	6160	132871
1	329010305	6161	134196
1	329064139	6162	134037
1	329117654	6163	132288
1	329171955	6164	134302
1	329225574	6165	133772
1	329279367	6166	133984
1	329333170	6167	134090
1	329387267	6168	134514
1	329440872	6169	133719
1	329494782	6170	133772
1	329548718	6171	133984
1	329602494	6172	133454
1	329656383	6173	133878
1	329709915	6174	132924
1	329764052	6175	134408
1	329818020	6176	134302
1	329871874	6177	134408
1	329925970	6178	134143
1	329979539	6179	133348
1	330033308	6180	134196
1	330086595	6181	132288
1	330140695	6182	133984
1	330194671	6183	134249
1	330248443	6184	133560
1	330302222	6185	134832
1	330356125	6186	133189
1	330410094	6187	134355
1	330464113	6188	134514
1	330517765	6189	133401
1	330571853	6190	133931
1	330625662	6191	134302
1	330679679	6192	134408
1	330733650	6193	133507
1	330787422	6194	134143
1	330841186	6195	132977
1	330895142	6196	134143
1	330948760	6197	133666
1	331002507	6198	133666
1	331056569	6199	134196
1	331110537	6200	134514
1	331164482	6201	133560
1	331218559	6202	135468
1	331272497	6203	134302
1	331326512	6204	133825
1	331380550	6205	133772
1	331434487	6206	134037
1	331488348	6207	134832
1	331542340	6208	133348
1	331596076	6209	133136
1	331649974	6210	133719
1	331704063	6211	135150
1	331757988	6212	134832
1	331811689	6213	132765
1	331865729	6214	134885
1	331919839	6215	133560
1	331973589	6216	134037
1	332027486	6217	134514
1	332081557	6218	133984
1	332135173	6219	133030
1	332189055	6220	133613
1	332242777	6221	134514
1	332296577	6222	132977
1	332350622	6223	135362
1	332404511	6224	133189
1	332458944	6225	135256
1	332512973	6226	133984
1	332566895	6227	134832
1	332620445	6228	132606
1	332674213	6229	133295
1	332728153	6230	135044
1	332782018	6231	133719
1	332835921	6232	133454
1	332889740	6233	134249
1	332943721	6234	134143
1	332997477	6235	134090
1	333051098	6236	132765
1	333105310	6237	134461
1	333158929	6238	134037
1	333212984	6239	134143
1	333266680	6240	133507
1	333320834	6241	134832
1	333374789	6242	133666
1	333428689	6243	134249
1	333482254	6244	133666
1	333536229	6245	134302
1	333590309	6246	134620
1	333644090	6247	133825
1	333698117	6248	134408
1	333752121	6249	134461
1	333806005	6250	133507
1	333859499	6251	132288
1	333913376	6252	135150
1	333967501	6253	134673
1	334021110	6254	132341
1	334074779	6255	134355
1	334128970	6256	134832
1	334182929	6257	133772
1	334236997	6258	134355
1	334290571	6259	133825
1	334344650	6260	133560
1	334398338	6261	134885
1	334452212	6262	134355
1	334506313	6263	133772
1	334559699	6264	131705
1	334613656	6265	134938
1	334667079	6266	132500
1	334720968	6267	135627
1	334774691	6268	132871
1	334828602	6269	134037
1	334882256	6270	134302
1	334935704	6271	132500
1	334989437	6272	133030
1	335042409	6273	132182
1	335096154	6274	133348
1	335149875	6275	133772
1	335203498	6276	133030
1	335257188	6277	134196
1	335310826	6278	133295
1	335364598	6279	133242
1	335418291	6280	133931
1	335472126	6281	133984
1	335525961	6282	134037
1	335579345	6283	132076
1	335633002	6284	133613
1	335686652	6285	133454
1	335740010	6286	133931
1	335793382	6287	132235
1	335847153	6288	133242
1	335901069	6289	133772
1	335954843	6290	134037
1	336008352	6291	133295
1	336062271	6292	134461
1	336115671	6293	132500
1	336169467	6294	133719
1	336222912	6295	133984
1	336276584	6296	132818
1	336329898	6297	132288
1	336383722	6298	133666
1	336437051	6299	132606
1	336491101	6300	135044
1	336544616	6301	133772
1	336598015	6302	132977
1	336651706	6303	133454
1	336705635	6304	133560
1	336759333	6305	134196
1	336812963	6306	133348
1	336866782	6307	133772
1	336920387	6308	133083
1	336974098	6309	134567
1	337028142	6310	133507
1	337081589	6311	133295
1	337135112	6312	132924
1	337189101	6313	133613
1	337242966	6314	134938
1	337296657	6315	133242
1	337350047	6316	132712
1	337403745	6317	133772
1	337457292	6318	133189
1	337510816	6319	133401
1	337564197	6320	132500
1	337617814	6321	133348
1	337671383	6322	133454
1	337724866	6323	132341
1	337778484	6324	134143
1	337832262	6325	134196
1	337885855	6326	133189
1	337939353	6327	133931
1	337993142	6328	134037
1	338046544	6329	132288
1	338099889	6330	131864
1	338153839	6331	135362
1	338207454	6332	133401
1	338260875	6333	132818
1	338314807	6334	134090
1	338368058	6335	132129
1	338421871	6336	134196
1	338475096	6337	131864
1	338528908	6338	134991
1	338582416	6339	132606
1	338636028	6340	133454
1	338689746	6341	133825
1	338743397	6342	132659
1	338796777	6343	133136
1	338850276	6344	133348
1	338903746	6345	132977
1	338957594	6346	134408
1	339011344	6347	132818
1	339064512	6348	132924
1	339117890	6349	132606
1	339171329	6350	133348
1	339225233	6351	132871
1	339278715	6352	133613
1	339332175	6353	132977
1	339385770	6354	133401
1	339439404	6355	133984
1	339493278	6356	133189
1	339547156	6357	134991
1	339600677	6358	133825
1	339654418	6359	132447
1	339707984	6360	134461
1	339761653	6361	133242
1	339815359	6362	133454
1	339869316	6363	133931
1	339923151	6364	133401
1	339976817	6365	133931
1	340030372	6366	133560
1	340084342	6367	134885
1	340138355	6368	134249
1	340191983	6369	133560
1	340245895	6370	134249
1	340299570	6371	132712
1	340353352	6372	135044
1	340407172	6373	133295
1	340460969	6374	134302
1	340514570	6375	134249
1	340568497	6376	133295
1	340622319	6377	134143
1	340676032	6378	133242
1	340729709	6379	134090
1	340783518	6380	133507
1	340837269	6381	133772
1	340891061	6382	133984
1	340944535	6383	133189
1	340998754	6384	133719
1	341052274	6385	133772
1	341106142	6386	134302
1	341160188	6387	134249
1	341213806	6388	133401
1	341267267	6389	133030
1	341321025	6390	133560
1	341374374	6391	133083
1	341428246	6392	134567
1	341482214	6393	133507
1	341536061	6394	133825
1	341589406	6395	133825
1	341642821	6396	133295
1	341696643	6397	133242
1	341750193	6398	132818
1	341803840	6399	133772
1	341857248	6400	133242
1	341910829	6401	133030
1	341964451	6402	133560
1	342018148	6403	133878
1	342072226	6404	135203
1	342125571	6405	131546
1	342179352	6406	134832
1	342233225	6407	133825
1	342286749	6408	133560
1	342340336	6409	133454
1	342393980	6410	133825
1	342447706	6411	133613
1	342501184	6412	132500
1	342555101	6413	135203
1	342608864	6414	133401
1	342662974	6415	135044
1	342716841	6416	133984
1	342770277	6417	133242
1	342824193	6418	133719
1	342877636	6419	132500
1	342931517	6420	134620
1	342985339	6421	134779
1	343039467	6422	134779
1	343093159	6423	133083
1	343146884	6424	134514
1	343200854	6425	133136
1	343255026	6426	134779
1	343308575	6427	133878
1	343362116	6428	133295
1	343416291	6429	134779
1	343470043	6430	133719
1	343524112	6431	133931
1	343577764	6432	133613
1	343631480	6433	134249
1	343685125	6434	133560
1	343738610	6435	133295
1	343792334	6436	133083
1	343845938	6437	134090
1	343900015	6438	134302
1	343953740	6439	134302
1	344007379	6440	133348
1	344061344	6441	133825
1	344114859	6442	133719
1	344168788	6443	134461
1	344222428	6444	133189
1	344276257	6445	134143
1	344329766	6446	133189
1	344383345	6447	132977
1	344437048	6448	134090
1	344490791	6449	132712
1	344544335	6450	134461
1	344597914	6451	132977
1	344651866	6452	133825
1	344705619	6453	133772
1	344759325	6454	134620
1	344813100	6455	133189
1	344867013	6456	134037
1	344920612	6457	133772
1	344974652	6458	135044
1	345028338	6459	132606
1	345082236	6460	134832
1	345135694	6461	133242
1	345189324	6462	132924
1	345242796	6463	132765
1	345296389	6464	133878
1	345350304	6465	133401
1	345403983	6466	133560
1	345457618	6467	133666
1	345511051	6468	132712
1	345564933	6469	134514
1	345618582	6470	134037
1	345672479	6471	133560
1	345726004	6472	134196
1	345779862	6473	133825
1	345833646	6474	133560
1	345887683	6475	133931
1	345941411	6476	133984
1	345995414	6477	134885
1	346048973	6478	133083
1	346102858	6479	134143
1	346156697	6480	133984
1	346210623	6481	133984
1	346264324	6482	133931
1	346318106	6483	133825
1	346371670	6484	133189
1	346425455	6485	133348
1	346479423	6486	133984
1	346533112	6487	134726
1	346587313	6488	134408
1	346641206	6489	134620
1	346695263	6490	134461
1	346748985	6491	134302
1	346802768	6492	134143
1	346856775	6493	134249
1	346910664	6494	133136
1	346964377	6495	134673
1	347017815	6496	132659
1	347071007	6497	132871
1	347125177	6498	133401
1	347178997	6499	135468
1	347232823	6500	133189
1	347286407	6501	133348
1	347340385	6502	134620
1	347393941	6503	132500
1	347447924	6504	135097
1	347501913	6505	134037
1	347555531	6506	134090
1	347609630	6507	134196
1	347663362	6508	134673
1	347717265	6509	133931
1	347771118	6510	134302
1	347824402	6511	131864
1	347878521	6512	135309
1	347932390	6513	134196
1	347985826	6514	132818
1	348039536	6515	133613
1	348093601	6516	135150
1	348146928	6517	132023
1	348200756	6518	134461
1	348254476	6519	133136
1	348308497	6520	134832
1	348361997	6521	133242
1	348415876	6522	133878
1	348469578	6523	133613
1	348523280	6524	134143
1	348576833	6525	133348
1	348630738	6526	134620
1	348684165	6527	132341
1	348737479	6528	133030
1	348791255	6529	132977
1	348845210	6530	135627
1	348899340	6531	134461
1	348953301	6532	134355
1	349006670	6533	132500
1	349060529	6534	133613
1	349114264	6535	134461
1	349167966	6536	133772
1	349222034	6537	134249
1	349275878	6538	134143
1	349329373	6539	133454
1	349382810	6540	133560
1	349436504	6541	133772
1	349490473	6542	133984
1	349544219	6543	134090
1	349598113	6544	134726
1	349651883	6545	133560
1	349705736	6546	133825
1	349759170	6547	133878
1	349813404	6548	135044
1	349867097	6549	132977
1	349920929	6550	134832
1	349974714	6551	134090
1	350028377	6552	133507
1	350082384	6553	134196
1	350136290	6554	134143
1	350189775	6555	133560
1	350243356	6556	133348
1	350296885	6557	132341
1	350350753	6558	135256
1	350404523	6559	133772
1	350458562	6560	134991
1	350511991	6561	132924
1	350566261	6562	134779
1	350620113	6563	134355
1	350673793	6564	133083
1	350727450	6565	133878
1	350781205	6566	134832
1	350835163	6567	133878
1	350888968	6568	133825
1	350942644	6569	134302
1	350996390	6570	133984
1	351050208	6571	133401
1	351104093	6572	134567
1	351157690	6573	133719
1	351211587	6574	134249
1	351265418	6575	133401
1	351319177	6576	133772
1	351373054	6577	134779
1	351426858	6578	132977
1	351480638	6579	134514
1	351534756	6580	135256
1	351588488	6581	133719
1	351642371	6582	132977
1	351695613	6583	133454
1	351749498	6584	133825
1	351803143	6585	133136
1	351856723	6586	133984
1	351910445	6587	133613
1	351964022	6588	134143
1	352017914	6589	133083
1	352071433	6590	133931
1	352125389	6591	134355
1	352179284	6592	134037
1	352232591	6593	133242
1	352286576	6594	134514
1	352340181	6595	133348
1	352393977	6596	133507
1	352447699	6597	133030
1	352501701	6598	134249
1	352555185	6599	133348
1	352609071	6600	134196
1	352662730	6601	134620
1	352716268	6602	132394
1	352770425	6603	135203
1	352824133	6604	133401
1	352878251	6605	134143
1	352931975	6606	134567
1	352985582	6607	134302
1	353039509	6608	133136
1	353093398	6609	134620
1	353147425	6610	133772
1	353201008	6611	133560
1	353254550	6612	132871
1	353309064	6613	136316
1	353362976	6614	133507
1	353416539	6615	133560
1	353470395	6616	134514
1	353523875	6617	132341
1	353577841	6618	135150
1	353631865	6619	134037
1	353685684	6620	134249
1	353739730	6621	133878
1	353793461	6622	133454
1	353847352	6623	134302
1	353901192	6624	134567
1	353955355	6625	134355
1	354009255	6626	134938
1	354063288	6627	133507
1	354117070	6628	134249
1	354170727	6629	133295
1	354224634	6630	134249
1	354278766	6631	135680
1	354332267	6632	132129
1	354385998	6633	133878
1	354439555	6634	133878
1	354493378	6635	134355
1	354547177	6636	132288
1	354600817	6637	133772
1	354654867	6638	134673
1	354708380	6639	133242
1	354762094	6640	133719
1	354815922	6641	133401
1	354870178	6642	135786
1	354923887	6643	132871
1	354977671	6644	134249
1	355031557	6645	133560
1	355085616	6646	134514
1	355139247	6647	133454
1	355192956	6648	134090
1	355246855	6649	134408
1	355300431	6650	131970
1	355354410	6651	134726
1	355408006	6652	134037
1	355461617	6653	133083
1	355515546	6654	135203
1	355569141	6655	131705
1	355622608	6656	134302
1	355676664	6657	135362
1	355730295	6658	133295
1	355784024	6659	133772
1	355837646	6660	133719
1	355891676	6661	134726
1	355945469	6662	133719
1	355998929	6663	132924
1	356052791	6664	133878
1	356106418	6665	133189
1	356160105	6666	133295
1	356213577	6667	133878
1	356267106	6668	132500
1	356320890	6669	134726
1	356374997	6670	134090
1	356428788	6671	134196
1	356482700	6672	134514
1	356536637	6673	133878
1	356590447	6674	133666
1	356644476	6675	134673
1	356698389	6676	134196
1	356751894	6677	132659
1	356805911	6678	135309
1	356859696	6679	133560
1	356913768	6680	134726
1	356967481	6681	134196
1	357021787	6682	134673
1	357075607	6683	133454
1	357129300	6684	133507
1	357182825	6685	133931
1	357236948	6686	135150
1	357290781	6687	133613
1	357344712	6688	133507
1	357398509	6689	133931
1	357451975	6690	132924
1	357505685	6691	134249
1	357559788	6692	134938
1	357613671	6693	134090
1	357667586	6694	133136
1	357721345	6695	134726
1	357775569	6696	134620
1	357829197	6697	133454
1	357883105	6698	135044
1	357937030	6699	133878
1	357991132	6700	134090
1	358044914	6701	134779
1	358098809	6702	133878
1	358152698	6703	133401
1	358206699	6704	134461
1	358260602	6705	134567
1	358314737	6706	134726
1	358368692	6707	134514
1	358422689	6708	135203
1	358476384	6709	133189
1	358530506	6710	134514
1	358584397	6711	133878
1	358638529	6712	135415
1	358692262	6713	133189
1	358746290	6714	134779
1	358800387	6715	133878
1	358854157	6716	134037
1	358908143	6717	134196
1	358961997	6718	134408
1	359016002	6719	133348
1	359069386	6720	133719
1	359123698	6721	135044
1	359177285	6722	134196
1	359231205	6723	133613
1	359285188	6724	134885
1	359339001	6725	133295
1	359393045	6726	134620
1	359447036	6727	134885
1	359500856	6728	134302
1	359554841	6729	134249
1	359608740	6730	133825
1	359663052	6731	135415
1	359717178	6732	134620
1	359771045	6733	133931
1	359825231	6734	135627
1	359878978	6735	133984
1	359932985	6736	134461
1	359986941	6737	133189
1	360040710	6738	134355
1	360094452	6739	134143
1	360148392	6740	134196
1	360202564	6741	135786
1	360256435	6742	132712
1	360310259	6743	133613
1	360364117	6744	134302
1	360418165	6745	134832
1	360472242	6746	134673
1	360525986	6747	133401
1	360579726	6748	133295
1	360634166	6749	136581
1	360687926	6750	133083
1	360742272	6751	135733
1	360795901	6752	133189
1	360849983	6753	134302
1	360903944	6754	134037
1	360957894	6755	134885
1	361011838	6756	133984
1	361066102	6757	134938
1	361119763	6758	134090
1	361174021	6759	135150
1	361227933	6760	133825
1	361282048	6761	134832
1	361336120	6762	135627
1	361390161	6763	133878
1	361444141	6764	134196
1	361498283	6765	134461
1	361552284	6766	134885
1	361606455	6767	135468
1	361660417	6768	133772
1	361714598	6769	135627
1	361768207	6770	132500
1	361822219	6771	134196
1	361876227	6772	135468
1	361930135	6773	133719
1	361983986	6774	134408
1	362038200	6775	133931
1	362092173	6776	134938
1	362145682	6777	132765
1	362199707	6778	133984
1	362253603	6779	135097
1	362307543	6780	133401
1	362361265	6781	133931
1	362415448	6782	134832
1	362469174	6783	134779
1	362523311	6784	133984
1	362577196	6785	134143
1	362631211	6786	134620
1	362685361	6787	134779
1	362739076	6788	133931
1	362793263	6789	135786
1	362847061	6790	133030
1	362901190	6791	134514
1	362955041	6792	134726
1	363009156	6793	134143
1	363063154	6794	134991
1	363117232	6795	133931
1	363171361	6796	135203
1	363225210	6797	133348
1	363278836	6798	134143
1	363332937	6799	135203
1	363387239	6800	134779
1	363441657	6801	135415
1	363495765	6802	135468
1	363549642	6803	133030
1	363603845	6804	135415
1	363657868	6805	133931
1	363711849	6806	134726
1	363766347	6807	135362
1	363820484	6808	135150
1	363874482	6809	134514
1	363928626	6810	135839
1	363982600	6811	133507
1	364036525	6812	133136
1	364090258	6813	134249
1	364144304	6814	134779
1	364198392	6815	133772
1	364252438	6816	135998
1	364306892	6817	134461
1	364360931	6818	135097
1	364414950	6819	134355
1	364469114	6820	135203
1	364523320	6821	134355
1	364577311	6822	134938
1	364631250	6823	134143
1	364685035	6824	132924
1	364738577	6825	133242
1	364792893	6826	135309
1	364846882	6827	134567
1	364901015	6828	134408
1	364955110	6829	135203
1	365009019	6830	134037
1	365063510	6831	135150
1	365117329	6832	134037
1	365171720	6833	135415
1	365225542	6834	134196
1	365280108	6835	135521
1	365334237	6836	135097
1	365388132	6837	133560
1	365442053	6838	134196
1	365495930	6839	133719
1	365549902	6840	134620
1	365603775	6841	134249
1	365658051	6842	135044
1	365712073	6843	134567
1	365766661	6844	135468
1	365820610	6845	134620
1	365874378	6846	132924
1	365928348	6847	134620
1	365982245	6848	134779
1	366036221	6849	133666
1	366089986	6850	133030
1	366144025	6851	136422
1	366197633	6852	132235
1	366251427	6853	134991
1	366305256	6854	133454
1	366359556	6855	135203
1	366413258	6856	133613
1	366467423	6857	134938
1	366521305	6858	134143
1	366574979	6859	133719
1	366629221	6860	135468
1	366682907	6861	133136
1	366736512	6862	132977
1	366790961	6863	136263
1	366844942	6864	134408
1	366898791	6865	133560
1	366952763	6866	133878
1	367006614	6867	134991
1	367060604	6868	134302
1	367114557	6869	133931
1	367168447	6870	134037
1	367222477	6871	135521
1	367276475	6872	134355
1	367330683	6873	134408
1	367384319	6874	133613
1	367438593	6875	135998
1	367492590	6876	134461
1	367546737	6877	133984
1	367600978	6878	135680
1	367654694	6879	133295
1	367708812	6880	135309
1	367763116	6881	133931
1	367817038	6882	135256
1	367871052	6883	133878
1	367925009	6884	135150
1	367979024	6885	133878
1	368032849	6886	134143
1	368087006	6887	135627
1	368140926	6888	133719
1	368194720	6889	134196
1	368248731	6890	133295
1	368302650	6891	134355
1	368356135	6892	133348
1	368410271	6893	134938
1	368464325	6894	134461
1	368517695	6895	132871
1	368571644	6896	134355
1	368625528	6897	134355
1	368679733	6898	134514
1	368733623	6899	133719
1	368787687	6900	135203
1	368841463	6901	133295
1	368895537	6902	135097
1	368949382	6903	133825
1	369003731	6904	134461
1	369057537	6905	134514
1	369111696	6906	134885
1	369165830	6907	134567
1	369219767	6908	134143
1	369273911	6909	135203
1	369328567	6910	136263
1	369382111	6911	133666
1	369436227	6912	133984
1	369490467	6913	134143
1	369544172	6914	135256
1	369598266	6915	134567
1	369652145	6916	134196
1	369706274	6917	134196
1	369760310	6918	134620
1	369814371	6919	135097
1	369868466	6920	133666
1	369922679	6921	135998
1	369976560	6922	134249
1	370030920	6923	134567
1	370085111	6924	135415
1	370138913	6925	134514
1	370193309	6926	134726
1	370247375	6927	134885
1	370301430	6928	134090
1	370355227	6929	134408
1	370409431	6930	134461
1	370463445	6931	135150
1	370517579	6932	134355
1	370571563	6933	133666
1	370625725	6934	135892
1	370679556	6935	133825
1	370733869	6936	134938
1	370787750	6937	133295
1	370841698	6938	135415
1	370895844	6939	134779
1	370949697	6940	133507
1	371004054	6941	135627
1	371058214	6942	134196
1	371112238	6943	134885
1	371165964	6944	133931
1	371219840	6945	133878
1	371273919	6946	134037
1	371327947	6947	134779
1	371381920	6948	134355
1	371436029	6949	134991
1	371490104	6950	134196
1	371544121	6951	134461
1	371598247	6952	134090
1	371652419	6953	134832
1	371706437	6954	134196
1	371760710	6955	135945
1	371814772	6956	135362
1	371869200	6957	135309
1	371923328	6958	134620
1	371977343	6959	133878
1	372031818	6960	136263
1	372086063	6961	134938
1	372140054	6962	133931
1	372194309	6963	135309
1	372248438	6964	134514
1	372302494	6965	135097
1	372356713	6966	135415
1	372411018	6967	134037
1	372465368	6968	135998
1	372518955	6969	132553
1	372573427	6970	135733
1	372627131	6971	134620
1	372681383	6972	134991
1	372735369	6973	133401
1	372789531	6974	135097
1	372843647	6975	134832
1	372897872	6976	134620
1	372952160	6977	135203
1	373006166	6978	135468
1	373060218	6979	133719
1	373114479	6980	135256
1	373168901	6981	135627
1	373223117	6982	134885
1	373277240	6983	134779
1	373331396	6984	134673
1	373385264	6985	134408
1	373439627	6986	134991
1	373493855	6987	134991
1	373547887	6988	134779
1	373602218	6989	134885
1	373656318	6990	134355
1	373710492	6991	135203
1	373764711	6992	135362
1	373818802	6993	134673
1	373872898	6994	134355
1	373927449	6995	136051
1	373981234	6996	133878
1	374035171	6997	134567
1	374089606	6998	135097
1	374143653	6999	133931
1	374197587	7000	134567
1	374251619	7001	134514
1	374305513	7002	134090
1	374359795	7003	134885
1	374414022	7004	134885
1	374468357	7005	135786
1	374522520	7006	134938
1	374576768	7007	134779
1	374630938	7008	134779
1	374685156	7009	134938
1	374739492	7010	135309
1	374793568	7011	134514
1	374847797	7012	135044
1	374901886	7013	134567
1	374955916	7014	134249
1	375010022	7015	135415
1	375064095	7016	134302
1	375118231	7017	135203
1	375172272	7018	133931
1	375226583	7019	135892
1	375280662	7020	135097
1	375334936	7021	134249
1	375388905	7022	134726
1	375443147	7023	135097
1	375497756	7024	135415
1	375551683	7025	134249
1	375605945	7026	135256
1	375659957	7027	135097
1	375713893	7028	134726
1	375768660	7029	135044
1	375822710	7030	133878
1	375876951	7031	135150
1	375931128	7032	135097
1	375985620	7033	136051
1	376039399	7034	134302
1	376093549	7035	134143
1	376147872	7036	135309
1	376201832	7037	134567
1	376256154	7038	135521
1	376310189	7039	133666
1	376364397	7040	135521
1	376418659	7041	135044
1	376472728	7042	134832
1	376527150	7043	135203
1	376581551	7044	134885
1	376635977	7045	135521
1	376690638	7046	136422
1	376745302	7047	135521
1	376799229	7048	134249
1	376853507	7049	135044
1	376907920	7050	135680
1	376962560	7051	135574
1	377016944	7052	135839
1	377071565	7053	135680
1	377126031	7054	134726
1	377179956	7055	134514
1	377234249	7056	135839
1	377288945	7057	135786
1	377343458	7058	135097
1	377397852	7059	135839
1	377452040	7060	134143
1	377506384	7061	135468
1	377560692	7062	136051
1	377615238	7063	134779
1	377669711	7064	135786
1	377724245	7065	135733
1	377778468	7066	134620
1	377832901	7067	136157
1	377886856	7068	133613
1	377941093	7069	134620
1	377995447	7070	135468
1	378049802	7071	134938
1	378103505	7072	133401
1	378158307	7073	136210
1	378212417	7074	135256
1	378266694	7075	134514
1	378321110	7076	135574
1	378375302	7077	135203
1	378429736	7078	135839
1	378483938	7079	135044
1	378538082	7080	134090
1	378592308	7081	135892
1	378646371	7082	134408
1	378700877	7083	135839
1	378754758	7084	133560
1	378809168	7085	135839
1	378863299	7086	135203
1	378917918	7087	135627
1	378972056	7088	134885
1	379026696	7089	136475
1	379080825	7090	133719
1	379135089	7091	135733
1	379189144	7092	133454
1	379243579	7093	136528
1	379297779	7094	134673
1	379352049	7095	135680
1	379406401	7096	134991
1	379460622	7097	134196
1	379515265	7098	135998
1	379569677	7099	135892
1	379623825	7100	134355