version 2
run QLearnCC-2-20100909-00:16:06-5848
attr configname QLearnCC
attr datetime 20100909-00:16:06
attr experiment QLearnCC
attr inifile D:/Developement/Oversim2/multic/simulations/omnetpp.ini
attr iterationvars $nhops=4
attr iterationvars2 "$nhops=4, $repetition=0"
attr measurement $nhops=4
attr network oversim.underlay.simpleunderlay.SimpleUnderlayNetwork
attr nhops 4
attr processid 5848
attr repetition 0
attr replication #0
attr resultdir results
attr runnumber 2
attr seedset 2

vector 1  SimpleUnderlayNetwork.globalObserver.globalStatistics  incoming_bytes  ETV
vector 2  SimpleUnderlayNetwork.globalObserver.globalStatistics  drops  ETV
vector 3  SimpleUnderlayNetwork.globalObserver.globalStatistics  delayed_acks  ETV
vector 4  SimpleUnderlayNetwork.globalObserver.globalStatistics  timetotimeouts  ETV
vector 5  SimpleUnderlayNetwork.globalObserver.globalStatistics  9rateOf1To0  ETV
vector 6  SimpleUnderlayNetwork.globalObserver.globalStatistics  max9RateOf1To0  ETV
vector 7  SimpleUnderlayNetwork.globalObserver.globalStatistics  9rateOf1To1  ETV
vector 8  SimpleUnderlayNetwork.globalObserver.globalStatistics  max9RateOf1To1  ETV
vector 9  SimpleUnderlayNetwork.globalObserver.globalStatistics  9rateOf1To2  ETV
vector 10  SimpleUnderlayNetwork.globalObserver.globalStatistics  max9RateOf1To2  ETV
vector 11  SimpleUnderlayNetwork.globalObserver.globalStatistics  9rateOf1To3  ETV
vector 12  SimpleUnderlayNetwork.globalObserver.globalStatistics  max9RateOf1To3  ETV
vector 13  SimpleUnderlayNetwork.globalObserver.globalStatistics  9rateOf1To4  ETV
vector 14  SimpleUnderlayNetwork.globalObserver.globalStatistics  max9RateOf1To4  ETV
vector 15  SimpleUnderlayNetwork.globalObserver.globalStatistics  9rateOf1To5  ETV
vector 16  SimpleUnderlayNetwork.globalObserver.globalStatistics  max9RateOf1To5  ETV
vector 17  SimpleUnderlayNetwork.globalObserver.globalStatistics  9rateOf1To6  ETV
vector 18  SimpleUnderlayNetwork.globalObserver.globalStatistics  max9RateOf1To6  ETV
vector 19  SimpleUnderlayNetwork.globalObserver.globalStatistics  9rateOf1To7  ETV
vector 20  SimpleUnderlayNetwork.globalObserver.globalStatistics  max9RateOf1To7  ETV
vector 21  SimpleUnderlayNetwork.globalObserver.globalStatistics  9rateOf1To8  ETV
vector 22  SimpleUnderlayNetwork.globalObserver.globalStatistics  max9RateOf1To8  ETV
vector 23  SimpleUnderlayNetwork.globalObserver.globalStatistics  9rateOf1To9  ETV
vector 24  SimpleUnderlayNetwork.globalObserver.globalStatistics  max9RateOf1To9  ETV
vector 25  SimpleUnderlayNetwork.globalObserver.globalStatistics  1rate  ETV
vector 26  SimpleUnderlayNetwork.globalObserver.globalStatistics  max2Rate  ETV
vector 27  SimpleUnderlayNetwork.globalObserver.globalStatistics  "GlobalNodeList: Number of nodes"  ETV
vector 28  SimpleUnderlayNetwork.globalObserver.globalStatistics  "GlobalNodeList: Number of bootstrapped malicious nodes"  ETV
1	237976619	6018	64766
1	238017156	6019	64236
1	238057555	6020	64819
1	238097892	6021	62911
1	238138753	6022	65349
1	238179355	6023	64342
1	238219417	6024	63335
1	238259914	6025	64501
1	238300157	6026	64395
1	238340348	6027	63812
1	238380689	6028	63653
1	238420881	6029	64130
1	238461389	6030	64289
1	238501802	6031	64077
1	238542235	6032	64289
1	238582941	6033	64236
1	238623543	6034	65031
1	238664014	6035	64819
1	238704745	6036	64130
1	238745055	6037	63971
1	238785113	6038	63918
1	238825206	6039	63441
1	238865907	6040	64607
1	238906209	6041	64819
1	238946281	6042	62646
1	238987127	6043	65508
1	239028076	6044	65455
1	239068452	6045	63547
1	239109039	6046	65031
1	239148911	6047	63229
1	239188861	6048	62487
1	239229604	6049	65773
1	239269971	6050	64342
1	239309790	6051	62911
1	239350387	6052	64554
1	239391249	6053	65084
1	239431599	6054	63653
1	239471892	6055	64024
1	239511905	6056	63282
1	239552478	6057	65031
1	239592553	6058	63176
1	239633218	6059	64819
1	239673754	6060	63812
1	239714233	6061	65031
1	239755020	6062	64607
1	239795292	6063	63017
1	239835698	6064	64289
1	239876285	6065	64713
1	239916649	6066	64501
1	239957040	6067	63547
1	239997319	6068	63759
1	240038020	6069	64819
1	240078288	6070	64395
1	240118964	6071	64713
1	240159565	6072	64077
1	240200048	6073	64872
1	240240606	6074	64342
1	240281146	6075	63918
1	240321491	6076	63918
1	240361594	6077	64395
1	240402001	6078	63865
1	240442059	6079	63918
1	240482393	6080	63282
1	240522905	6081	63812
1	240563305	6082	64660
1	240603553	6083	64077
1	240643541	6084	62805
1	240682939	6085	62964
1	240723853	6086	64554
1	240764360	6087	65455
1	240804245	6088	62381
1	240844652	6089	64289
1	240885323	6090	64978
1	240925783	6091	64024
1	240965902	6092	63017
1	241005874	6093	64183
1	241045678	6094	62964
1	241085891	6095	63971
1	241126501	6096	63918
1	241166700	6097	63759
1	241206946	6098	64660
1	241246768	6099	62593
1	241287343	6100	64607
1	241327592	6101	63123
1	241368046	6102	65031
1	241407552	6103	62540
1	241447715	6104	62911
1	241488128	6105	64766
1	241528463	6106	64077
1	241568620	6107	64024
1	241608210	6108	62699
1	241648370	6109	63547
1	241687950	6110	62593
1	241728291	6111	64077
1	241768368	6112	64554
1	241808642	6113	63388
1	241848660	6114	63441
1	241888831	6115	63229
1	241929221	6116	64183
1	241968740	6117	62540
1	242009107	6118	65031
1	242049378	6119	64342
1	242089146	6120	62699
1	242129101	6121	62752
1	242169092	6122	63971
1	242209301	6123	63017
1	242249304	6124	63918
1	242289299	6125	62540
1	242329061	6126	64660
1	242368588	6127	61798
1	242408233	6128	63282
1	242448367	6129	63123
1	242488508	6130	64289
1	242528547	6131	63653
1	242568456	6132	63017
1	242608135	6133	61692
1	242647972	6134	65031
1	242688405	6135	63547
1	242728223	6136	62381
1	242768839	6137	64872
1	242808437	6138	62381
1	242848266	6139	63335
1	242888695	6140	64448
1	242928614	6141	63759
1	242968729	6142	62911
1	243008935	6143	64554
1	243048575	6144	62116
1	243089010	6145	65137
1	243129128	6146	63017
1	243169202	6147	64130
1	243209481	6148	63600
1	243249404	6149	62964
1	243289626	6150	64289
1	243329856	6151	63865
1	243370488	6152	64342
1	243410373	6153	62805
1	243450755	6154	65031
1	243490840	6155	63335
1	243531334	6156	64183
1	243571634	6157	64607
1	243612128	6158	64183
1	243652006	6159	62328
1	243691837	6160	64660
1	243732590	6161	64183
1	243772939	6162	64289
1	243813502	6163	63918
1	243853282	6164	63229
1	243892912	6165	62593
1	243933455	6166	64342
1	243973176	6167	62381
1	244013597	6168	64925
1	244053263	6169	63017
1	244093446	6170	62964
1	244134265	6171	64554
1	244174640	6172	64501
1	244214784	6173	63759
1	244255219	6174	64289
1	244295386	6175	63865
1	244335806	6176	64501
1	244376319	6177	64024
1	244416732	6178	63441
1	244457275	6179	65084
1	244497301	6180	63123
1	244537680	6181	64607
1	244578402	6182	63812
1	244619023	6183	65296
1	244659606	6184	65137
1	244700198	6185	63229
1	244740745	6186	65508
1	244781226	6187	63600
1	244821502	6188	64607
1	244861999	6189	64130
1	244902427	6190	64342
1	244942643	6191	63388
1	244982852	6192	64183
1	245023414	6193	64978
1	245063915	6194	64077
1	245104660	6195	64501
1	245145367	6196	64395
1	245185710	6197	63865
1	245226128	6198	64342
1	245266882	6199	64501
1	245307509	6200	64819
1	245348119	6201	64819
1	245388553	6202	64289
1	245429266	6203	64819
1	245469862	6204	64342
1	245509985	6205	63812
1	245550301	6206	63600
1	245591218	6207	64978
1	245631339	6208	63494
1	245671650	6209	64183
1	245712063	6210	64236
1	245752746	6211	64607
1	245793328	6212	64607
1	245833671	6213	63812
1	245874286	6214	64395
1	245914549	6215	64024
1	245955258	6216	64501
1	245995569	6217	63918
1	246036142	6218	64713
1	246076524	6219	64289
1	246117255	6220	64236
1	246158122	6221	65084
1	246198148	6222	63070
1	246238865	6223	65667
1	246279469	6224	64130
1	246319615	6225	63759
1	246359893	6226	63388
1	246400914	6227	65508
1	246441281	6228	63176
1	246481991	6229	65243
1	246522509	6230	63653
1	246562898	6231	64501
1	246603667	6232	64395
1	246644562	6233	65455
1	246685290	6234	64660
1	246726379	6235	64872
1	246766798	6236	64660
1	246807770	6237	65190
1	246848355	6238	64872
1	246888764	6239	64077
1	246929708	6240	64819
1	246969474	6241	63335
1	247010194	6242	64130
1	247050182	6243	63176
1	247090605	6244	64819
1	247131418	6245	64130
1	247172245	6246	65084
1	247213101	6247	65031
1	247253635	6248	64554
1	247294803	6249	65826
1	247335029	6250	63070
1	247375716	6251	64342
1	247416176	6252	64713
1	247456324	6253	63547
1	247496738	6254	64342
1	247537478	6255	64395
1	247578693	6256	65455
1	247618847	6257	63653
1	247659958	6258	65190
1	247700087	6259	63812
1	247740742	6260	64554
1	247781196	6261	64236
1	247821988	6262	64978
1	247862554	6263	64183
1	247903042	6264	64289
1	247943624	6265	65190
1	247984762	6266	64183
1	248025650	6267	65402
1	248065727	6268	63070
1	248106480	6269	65296
1	248147039	6270	64342
1	248187248	6271	62964
1	248227967	6272	65508
1	248268759	6273	64448
1	248309387	6274	64766
1	248350327	6275	64713
1	248390611	6276	63600
1	248431174	6277	64713
1	248471552	6278	63441
1	248512126	6279	64660
1	248552333	6280	63282
1	248593033	6281	65084
1	248633856	6282	64978
1	248674450	6283	64130
1	248714993	6284	65243
1	248755489	6285	63759
1	248795725	6286	63918
1	248836536	6287	65349
1	248876961	6288	63494
1	248917135	6289	65402
1	248957591	6290	62222
1	248998202	6291	64448
1	249038711	6292	64554
1	249078966	6293	63123
1	249119264	6294	64660
1	249159463	6295	63335
1	249199609	6296	64130
1	249240701	6297	64607
1	249280670	6298	63706
1	249321384	6299	64607
1	249362023	6300	65296
1	249402715	6301	64395
1	249443079	6302	63971
1	249483760	6303	64236
1	249524315	6304	64130
1	249565133	6305	65614
1	249605228	6306	63070
1	249645817	6307	65137
1	249686269	6308	63759
1	249726766	6309	64607
1	249767084	6310	64713
1	249807758	6311	64342
1	249848371	6312	64077
1	249889015	6313	65243
1	249928976	6314	63229
1	249969765	6315	64183
1	250009598	6316	63547
1	250050441	6317	64448
1	250090861	6318	64501
1	250131488	6319	64660
1	250172137	6320	65084
1	250212254	6321	62858
1	250252751	6322	64236
1	250293486	6323	64713
1	250334390	6324	65190
1	250374600	6325	63494
1	250414356	6326	62911
1	250454773	6327	64289
1	250494810	6328	63017
1	250535421	6329	64342
1	250575558	6330	64130
1	250615295	6331	62964
1	250655483	6332	63600
1	250695900	6333	64289
1	250736665	6334	64395
1	250776825	6335	63759
1	250817267	6336	64501
1	250857714	6337	64289
1	250898220	6338	64395
1	250938556	6339	63759
1	250978551	6340	63971
1	251018937	6341	64024
1	251059135	6342	63441
1	251099667	6343	64183
1	251140142	6344	64660
1	251180910	6345	64872
1	251221310	6346	63653
1	251261558	6347	64342
1	251302182	6348	63759
1	251342627	6349	64925
1	251383161	6350	63547
1	251423544	6351	64183
1	251463674	6352	63971
1	251503851	6353	64448
1	251544035	6354	63600
1	251584243	6355	64024
1	251624818	6356	64183
1	251664659	6357	63918
1	251705044	6358	62805
1	251745279	6359	64766
1	251786001	6360	64978
1	251826605	6361	63547
1	251867013	6362	64077
1	251906944	6363	63812
1	251946954	6364	62805
1	251987058	6365	64130
1	252027494	6366	63918
1	252067324	6367	63176
1	252107772	6368	64289
1	252148234	6369	64501
1	252188808	6370	65349
1	252228570	6371	62381
1	252268942	6372	64554
1	252308950	6373	62063
1	252349242	6374	64024
1	252389683	6375	64872
1	252429711	6376	61639
1	252470373	6377	66038
1	252510903	6378	64554
1	252551422	6379	63865
1	252591724	6380	63971
1	252631998	6381	64554
1	252672452	6382	64183
1	252712364	6383	62381
1	252752882	6384	64395
1	252792783	6385	63282
1	252833403	6386	64978
1	252873978	6387	64183
1	252914432	6388	63918
1	252954679	6389	64289
1	252994897	6390	63865
1	253035220	6391	63918
1	253075913	6392	64766
1	253115658	6393	62858
1	253155963	6394	64024
1	253196111	6395	63600
1	253236110	6396	63494
1	253276752	6397	64236
1	253317216	6398	64342
1	253357771	6399	64448
1	253398104	6400	63600
1	253438730	6401	64766
1	253478994	6402	64289
1	253519583	6403	64607
1	253560243	6404	64978
1	253600979	6405	63971
1	253641323	6406	64342
1	253681794	6407	63706
1	253722362	6408	64236
1	253762575	6409	63812
1	253802924	6410	64448
1	253843230	6411	63865
1	253883557	6412	64183
1	253924147	6413	64713
1	253964170	6414	62434
1	254004253	6415	63865
1	254044616	6416	64342
1	254084559	6417	63388
1	254124810	6418	63653
1	254165387	6419	64819
1	254205631	6420	63759
1	254246278	6421	63759
1	254286695	6422	64236
1	254326994	6423	64501
1	254367280	6424	64130
1	254407602	6425	63600
1	254447939	6426	64766
1	254487966	6427	62752
1	254528547	6428	64448
1	254568945	6429	64289
1	254608946	6430	63282
1	254649174	6431	63759
1	254689764	6432	65137
1	254730084	6433	63865
1	254770271	6434	62858
1	254810128	6435	63706
1	254850508	6436	63812
1	254890844	6437	63918
1	254931570	6438	65084
1	254971451	6439	63176
1	255012127	6440	64925
1	255052632	6441	64183
1	255093290	6442	63971
1	255133257	6443	63176
1	255173822	6444	64501
1	255214413	6445	64660
1	255254319	6446	63229
1	255294849	6447	64819
1	255335889	6448	65296
1	255376285	6449	64236
1	255416491	6450	63706
1	255456694	6451	63282
1	255497423	6452	64766
1	255538135	6453	64925
1	255578834	6454	64501
1	255619511	6455	64925
1	255659598	6456	63600
1	255700619	6457	64925
1	255741142	6458	64395
1	255781697	6459	64236
1	255822619	6460	65137
1	255863210	6461	64607
1	255903759	6462	63812
1	255944204	6463	64183
1	255985399	6464	66462
1	256026307	6465	64236
1	256066737	6466	64183
1	256107734	6467	65455
1	256147947	6468	63494
1	256189127	6469	65455
1	256229614	6470	64713
1	256270481	6471	64236
1	256311070	6472	64501
1	256351653	6473	64501
1	256392601	6474	64766
1	256433145	6475	64872
1	256473758	6476	64501
1	256514560	6477	64077
1	256555301	6478	66197
1	256595860	6479	63282
1	256636148	6480	64183
1	256675607	6481	61745
1	256716051	6482	64554
1	256756330	6483	63971
1	256797086	6484	65932
1	256837641	6485	63229
1	256878275	6486	65561
1	256918579	6487	63547
1	256959545	6488	64395
1	257000289	6489	66091
1	257040993	6490	64607
1	257081426	6491	63653
1	257122084	6492	64183
1	257162695	6493	65084
1	257203667	6494	64819
1	257244500	6495	64607
1	257285502	6496	65773
1	257326003	6497	63759
1	257366983	6498	65561
1	257407594	6499	64713
1	257448210	6500	64501
1	257488979	6501	64925
1	257529922	6502	65190
1	257570683	6503	64501
1	257611058	6504	63653
1	257651871	6505	65402
1	257691749	6506	63282
1	257732536	6507	64607
1	257773410	6508	64183
1	257814636	6509	65826
1	257854714	6510	62964
1	257895635	6511	65826
1	257936084	6512	64925
1	257976873	6513	64077
1	258017624	6514	64766
1	258058244	6515	64448
1	258098740	6516	64501
1	258139079	6517	63706
1	258180051	6518	64978
1	258220324	6519	65402
1	258261012	6520	62911
1	258301753	6521	65349
1	258342354	6522	64448
1	258382915	6523	64130
1	258424191	6524	66144
1	258464586	6525	63918
1	258505235	6526	63653
1	258546199	6527	66144
1	258586171	6528	63759
1	258626784	6529	63706
1	258667308	6530	65084
1	258708327	6531	64395
1	258748647	6532	64607
1	258789580	6533	63971
1	258830210	6534	65402
1	258871132	6535	64183
1	258911750	6536	64501
1	258952564	6537	64342
1	258993128	6538	64448
1	259034213	6539	66038
1	259074941	6540	65190
1	259115361	6541	62911
1	259156247	6542	65667
1	259197218	6543	65137
1	259237859	6544	64713
1	259278587	6545	64289
1	259319464	6546	64289
1	259360239	6547	66144
1	259401151	6548	63653
1	259441632	6549	64978
1	259482919	6550	66197
1	259523740	6551	64501
1	259564761	6552	65879
1	259605183	6553	62805
1	259646053	6554	65402
1	259687080	6555	64925
1	259727505	6556	64554
1	259767976	6557	65243
1	259809027	6558	63971
1	259849549	6559	65296
1	259890027	6560	64501
1	259930883	6561	64395
1	259971568	6562	64024
1	260011618	6563	63918
1	260052338	6564	64395
1	260092796	6565	64819
1	260133620	6566	65614
1	260174327	6567	64342
1	260215209	6568	64395
1	260255790	6569	64395
1	260296546	6570	64289
1	260337278	6571	64660
1	260377810	6572	64978
1	260418593	6573	64395
1	260459118	6574	64448
1	260499864	6575	65084
1	260540697	6576	64607
1	260581327	6577	64607
1	260622102	6578	64713
1	260662988	6579	65720
1	260703771	6580	63706
1	260744172	6581	64872
1	260785228	6582	64872
1	260826367	6583	65190
1	260867174	6584	64713
1	260908129	6585	65402
1	260948260	6586	63865
1	260988746	6587	63918
1	261029635	6588	65667
1	261070141	6589	64342
1	261111177	6590	65190
1	261152346	6591	65667
1	261192871	6592	63706
1	261233647	6593	64819
1	261274072	6594	64448
1	261314304	6595	63441
1	261354662	6596	63600
1	261395548	6597	65826
1	261436191	6598	64236
1	261477198	6599	64819
1	261518217	6600	66038
1	261559027	6601	63706
1	261599742	6602	64395
1	261640859	6603	66356
1	261681349	6604	63123
1	261722383	6605	65455
1	261762661	6606	63865
1	261803675	6607	65561
1	261844229	6608	63706
1	261885094	6609	65667
1	261925923	6610	64448
1	261967137	6611	65879
1	262007172	6612	63176
1	262048212	6613	65243
1	262088625	6614	64130
1	262129594	6615	65296
1	262170253	6616	63335
1	262210650	6617	64713
1	262251714	6618	65031
1	262292461	6619	65773
1	262333321	6620	63971
1	262374462	6621	65667
1	262415162	6622	64925
1	262455954	6623	63971
1	262496853	6624	65349
1	262537841	6625	64554
1	262578328	6626	64713
1	262619102	6627	64024
1	262659648	6628	64024
1	262700210	6629	65137
1	262741057	6630	64607
1	262782048	6631	65455
1	262822704	6632	64713
1	262863548	6633	64925
1	262904021	6634	63759
1	262944896	6635	65031
1	262986051	6636	65773
1	263026611	6637	63971
1	263067716	6638	65508
1	263108100	6639	63918
1	263148974	6640	64978
1	263189735	6641	64395
1	263231005	6642	64872
1	263271686	6643	66674
1	263312377	6644	62805
1	263353120	6645	64501
1	263394206	6646	66303
1	263435006	6647	63971
1	263475587	6648	64925
1	263516224	6649	64130
1	263557121	6650	64342
1	263598081	6651	66197
1	263638919	6652	64978
1	263679524	6653	64607
1	263720465	6654	64607
1	263761516	6655	64554
1	263802282	6656	64978
1	263843886	6657	65985
1	263884750	6658	64978
1	263925897	6659	64713
1	263967465	6660	67151
1	264008173	6661	63971
1	264049679	6662	66462
1	264090641	6663	63971
1	264131348	6664	65720
1	264172624	6665	65561
1	264213320	6666	64024
1	264254396	6667	64448
1	264294832	6668	64819
1	264335416	6669	63865
1	264376145	6670	65402
1	264416989	6671	64660
1	264457774	6672	64925
1	264498639	6673	64660
1	264539641	6674	65243
1	264580520	6675	64554
1	264621593	6676	65614
1	264662813	6677	66144
1	264703414	6678	63388
1	264744065	6679	63547
1	264785067	6680	66674
1	264825723	6681	63494
1	264866454	6682	64925
1	264907759	6683	65985
1	264949431	6684	66515
1	264990392	6685	65349
1	265031358	6686	64978
1	265072014	6687	63918
1	265113060	6688	65296
1	265153875	6689	65084
1	265194695	6690	64607
1	265236040	6691	65561
1	265276552	6692	63812
1	265317525	6693	64766
1	265358901	6694	65773
1	265399701	6695	65137
1	265440522	6696	64660
1	265480976	6697	63865
1	265521923	6698	65137
1	265562765	6699	65826
1	265603552	6700	64289
1	265644268	6701	64872
1	265685066	6702	65084
1	265725652	6703	63547
1	265766538	6704	65084
1	265807222	6705	64978
1	265847747	6706	64289
1	265888991	6707	64819
1	265929423	6708	65031
1	265970354	6709	64024
1	266011224	6710	65826
1	266052146	6711	65084
1	266092787	6712	64236
1	266133177	6713	65084
1	266174175	6714	64130
1	266215291	6715	64448
1	266256019	6716	65243
1	266296852	6717	64183
1	266337533	6718	65826
1	266378469	6719	64236
1	266419359	6720	65720
1	266460202	6721	63971
1	266501246	6722	65667
1	266542129	6723	64554
1	266582727	6724	65031
1	266623210	6725	64077
1	266663959	6726	65296
1	266705164	6727	65455
1	266745870	6728	63547
1	266786360	6729	64501
1	266827677	6730	66674
1	266868124	6731	63282
1	266909186	6732	66144
1	266949778	6733	63123
1	266990783	6734	66091
1	267031710	6735	65084
1	267072577	6736	64819
1	267113372	6737	64236
1	267154251	6738	64925
1	267195370	6739	65031
1	267235662	6740	64607
1	267276297	6741	64713
1	267317091	6742	64289
1	267357996	6743	64448
1	267398766	6744	65932
1	267439411	6745	64713
1	267480459	6746	64766
1	267521401	6747	65243
1	267562633	6748	65614
1	267603349	6749	64607
1	267644088	6750	64289
1	267684971	6751	64925
1	267726127	6752	65455
1	267766681	6753	63971
1	267807511	6754	65773
1	267848473	6755	64077
1	267889185	6756	64713
1	267929824	6757	64395
1	267970656	6758	65508
1	268011473	6759	63971
1	268052251	6760	65614
1	268092560	6761	63653
1	268133332	6762	64501
1	268174028	6763	64607
1	268215050	6764	66091
1	268256290	6765	64660
1	268297235	6766	64660
1	268338292	6767	65614
1	268378821	6768	63706
1	268419811	6769	65614
1	268460260	6770	63600
1	268500826	6771	64501
1	268541298	6772	64236
1	268581983	6773	64713
1	268622674	6774	65402
1	268663461	6775	64183
1	268704404	6776	65084
1	268745202	6777	64713
1	268786309	6778	64766
1	268827093	6779	65031
1	268867980	6780	64554
1	268909020	6781	64766
1	268949541	6782	64978
1	268990685	6783	65614
1	269031443	6784	64289
1	269072394	6785	65402
1	269112993	6786	64713
1	269153134	6787	63282
1	269194044	6788	64819
1	269234969	6789	65190
1	269275416	6790	64130
1	269315858	6791	64342
1	269356441	6792	64130
1	269397052	6793	64978
1	269437729	6794	64183
1	269478132	6795	64130
1	269518898	6796	65137
1	269559173	6797	63176
1	269600029	6798	65243
1	269641003	6799	64607
1	269681528	6800	64607
1	269722269	6801	65296
1	269763317	6802	64713
1	269803796	6803	63282
1	269844688	6804	65826
1	269884712	6805	63176
1	269926070	6806	66197
1	269966974	6807	64607
1	270007833	6808	64342
1	270048555	6809	64925
1	270089615	6810	65349
1	270130798	6811	65932
1	270171205	6812	63812
1	270212243	6813	64978
1	270252335	6814	63494
1	270293152	6815	64501
1	270333739	6816	65084
1	270374345	6817	63865
1	270415284	6818	64713
1	270456015	6819	64554
1	270497317	6820	65455
1	270538062	6821	66250
1	270578931	6822	64395
1	270619283	6823	63971
1	270660410	6824	65402
1	270700732	6825	63759
1	270741158	6826	64660
1	270781565	6827	63335
1	270822604	6828	64819
1	270862948	6829	64183
1	270903449	6830	64183
1	270943997	6831	64660
1	270984707	6832	64501
1	271025472	6833	64289
1	271065768	6834	64395
1	271106710	6835	64395
1	271147202	6836	64342
1	271187931	6837	64660
1	271228632	6838	64925
1	271268999	6839	62752
1	271310247	6840	66462
1	271350243	6841	63706
1	271391128	6842	64501
1	271431952	6843	65614
1	271472664	6844	64395
1	271513370	6845	64448
1	271554055	6846	65084
1	271595243	6847	64342
1	271636367	6848	65614
1	271677091	6849	64978
1	271718167	6850	65349
1	271758859	6851	64236
1	271799341	6852	64872
1	271839874	6853	63494
1	271880364	6854	64236
1	271921620	6855	65349
1	271962121	6856	64448
1	272003048	6857	64448
1	272044050	6858	66197
1	272084674	6859	63547
1	272125742	6860	65084
1	272166410	6861	64872
1	272207281	6862	64978
1	272247979	6863	64236
1	272288656	6864	64501
1	272329490	6865	64766
1	272370003	6866	63441
1	272410878	6867	66568
1	272451978	6868	63706
1	272492782	6869	64766
1	272533814	6870	65402
1	272574990	6871	65402
1	272615283	6872	63494
1	272656661	6873	66038
1	272697195	6874	64130
1	272738253	6875	65031
1	272778731	6876	64236
1	272820035	6877	66250
1	272861368	6878	65243
1	272902247	6879	65084
1	272942998	6880	65084
1	272983413	6881	64130
1	273024374	6882	64978
1	273065052	6883	64819
1	273105741	6884	64501
1	273146692	6885	64978
1	273187569	6886	64872
1	273228428	6887	64554
1	273268961	6888	64448
1	273309571	6889	63918
1	273350147	6890	64236
1	273390528	6891	64289
1	273431241	6892	64766
1	273471795	6893	64819
1	273512514	6894	64713
1	273553783	6895	65349
1	273594899	6896	65137
1	273635480	6897	64077
1	273676426	6898	64978
1	273716761	6899	63918
1	273757693	6900	65614
1	273798453	6901	64448
1	273838903	6902	63494
1	273879690	6903	64342
1	273920275	6904	64289
1	273961012	6905	65296
1	274001656	6906	64130
1	274042371	6907	64395
1	274083019	6908	65084
1	274124110	6909	65031
1	274164952	6910	64713
1	274205761	6911	64501
1	274246781	6912	64819
1	274287108	6913	64713
1	274327489	6914	63441
1	274368358	6915	64925
1	274409603	6916	65296
1	274450144	6917	63865
1	274491214	6918	65296
1	274531604	6919	63494
1	274572670	6920	65031
1	274613045	6921	64766
1	274653582	6922	63017
1	274694013	6923	63229
1	274735361	6924	65614
1	274775933	6925	65508
1	274816564	6926	63282
1	274857694	6927	65614
1	274898151	6928	64130
1	274938952	6929	64713
1	274979571	6930	64713
1	275020457	6931	64077
1	275061268	6932	65137
1	275102531	6933	65932
1	275143381	6934	65402
1	275184184	6935	64130
1	275224858	6936	64448
1	275265905	6937	65614
1	275306947	6938	64766
1	275348123	6939	66091
1	275388857	6940	63971
1	275429461	6941	64183
1	275470220	6942	64077
1	275510704	6943	65084
1	275552020	6944	65137
1	275593239	6945	65349
1	275634339	6946	65031
1	275674877	6947	64554
1	275715723	6948	64925
1	275757055	6949	65031
1	275797554	6950	64607
1	275838621	6951	65243
1	275879160	6952	64554
1	275919719	6953	64501
1	275960867	6954	65137
1	276001839	6955	64501
1	276042147	6956	63918
1	276082332	6957	63441
1	276123323	6958	65667
1	276163927	6959	63706
1	276204763	6960	65084
1	276245581	6961	64978
1	276286847	6962	65879
1	276327500	6963	63706
1	276367903	6964	63865
1	276408888	6965	65614
1	276449658	6966	64607
1	276490428	6967	64554
1	276531335	6968	65031
1	276572197	6969	64448
1	276613259	6970	66568
1	276653824	6971	63282
1	276694285	6972	64183
1	276735006	6973	64236
1	276775582	6974	64660
1	276816807	6975	65879
1	276857184	6976	64660
1	276897938	6977	63653
1	276938203	6978	64183
1	276979158	6979	65243
1	277019652	6980	63812
1	277060237	6981	64872
1	277100710	6982	63706
1	277141249	6983	64554
1	277181874	6984	64819
1	277222624	6985	65031
1	277263132	6986	63600
1	277304160	6987	65031
1	277344913	6988	65243
1	277385482	6989	64289
1	277426319	6990	65031
1	277466825	6991	64660
1	277507752	6992	65084
1	277548456	6993	64607
1	277589270	6994	64819
1	277629818	6995	64077
1	277670959	6996	65667
1	277710990	6997	62593
1	277751489	6998	64236
1	277792434	6999	65667
1	277832977	7000	64395
1	277873376	7001	64607
1	277914114	7002	64289
1	277954609	7003	64289
1	277995041	7004	64289
1	278035555	7005	64289
1	278076274	7006	64236
1	278117410	7007	66303
1	278157966	7008	64183
1	278198793	7009	64554
1	278239650	7010	64342
1	278280858	7011	66091
1	278321902	7012	65720
1	278362769	7013	64342
1	278403808	7014	65349
1	278444660	7015	65190
1	278484989	7016	63123
1	278525869	7017	64819
1	278566801	7018	65031
1	278607516	7019	64342
1	278648265	7020	65561
1	278689359	7021	64766
1	278730299	7022	65137
1	278771220	7023	64819
1	278811581	7024	63282
1	278852032	7025	64554
1	278893150	7026	65243
1	278934366	7027	65879
1	278975165	7028	64501
1	279015767	7029	64978
1	279056534	7030	63971
1	279097293	7031	64448
1	279137867	7032	64607
1	279179019	7033	65402
1	279219157	7034	64872
1	279259733	7035	63971
1	279300579	7036	64024
1	279341814	7037	65561
1	279382348	7038	64713
1	279423491	7039	65773
1	279464299	7040	64342
1	279504771	7041	63706
1	279545598	7042	66038
1	279586361	7043	63282
1	279627362	7044	66568
1	279668631	7045	64819
1	279709873	7046	65455
1	279750648	7047	64448
1	279791570	7048	65031
1	279832657	7049	65137
1	279873600	7050	64978
1	279914619	7051	64713
1	279955424	7052	64607
1	279996244	7053	64819
1	280037218	7054	65243
1	280077661	7055	63441
1	280119084	7056	66356
1	280159724	7057	64872
1	280200296	7058	63123
1	280241304	7059	65614
1	280282155	7060	65243
1	280323041	7061	65243
1	280363541	7062	63653
1	280404100	7063	64660
1	280445279	7064	64978
1	280486312	7065	64713
1	280527516	7066	65932
1	280568559	7067	64872
1	280609604	7068	65190
1	280650656	7069	65455
1	280691812	7070	64077
1	280732821	7071	66303
1	280774006	7072	64395
1	280814904	7073	65190
1	280855342	7074	64024
1	280896511	7075	65720
1	280937395	7076	64395
1	280978079	7077	64819
1	281019078	7078	65349
1	281059619	7079	63547
1	281100288	7080	63918
1	281141327	7081	66250
1	281182151	7082	64183
1	281223221	7083	66197
1	281264350	7084	64183
1	281305102	7085	65084
1	281346008	7086	64342
1	281387172	7087	65932
1	281427692	7088	64024
1	281468431	7089	65190
1	281509417	7090	64554
1	281550197	7091	65402
1	281590885	7092	64289
1	281631461	7093	63865
1	281672351	7094	65137
1	281713134	7095	65084
1	281754519	7096	65455
1	281795361	7097	64395
1	281835705	7098	64501
1	281876994	7099	65561
1	281917003	7100	63388
1	281958631	7101	65349
1	281998926	7102	63918
1	282039948	7103	65614
1	282080822	7104	64819
1	282122015	7105	65137
1	282162808	7106	64819
1	282203861	7107	65296
1	282244151	7108	63229
1	282285254	7109	64554
1	282326528	7110	67098
1	282367475	7111	64872
1	282407873	7112	63653
1	282449558	7113	66250
1	282490769	7114	65296
1	282531519	7115	64342
1	282572656	7116	64925
1	282613830	7117	65031
1	282654642	7118	65137
1	282695755	7119	65296
1	282736791	7120	65243
1	282778083	7121	65296
1	282818945	7122	65402
1	282860052	7123	63653
1	282900577	7124	65508
1	282941767	7125	64925
1	282982422	7126	63918
1	283023034	7127	64236
1	283063782	7128	65402
1	283105234	7129	64448
1	283146103	7130	66409
1	283187553	7131	64448
1	283228595	7132	65614
1	283269243	7133	64872
1	283310343	7134	65561
1	283351691	7135	65190
1	283392033	7136	63600
1	283433384	7137	66303
1	283474319	7138	64554
1	283515397	7139	65031
1	283556587	7140	65296
1	283597286	7141	65031
1	283638046	7142	64448
1	283679182	7143	65296
1	283720202	7144	65137