version 2
run PerfectCC-0-20100908-19:57:30-1696
attr configname PerfectCC
attr datetime 20100908-19:57:30
attr experiment PerfectCC
attr inifile D:/Developement/Oversim2/multic/simulations/omnetpp.ini
attr iterationvars ""
attr iterationvars2 $repetition=0
attr measurement ""
attr network oversim.underlay.simpleunderlay.SimpleUnderlayNetwork
attr processid 1696
attr repetition 0
attr replication #0
attr resultdir results
attr runnumber 0
attr seedset 0

vector 1  SimpleUnderlayNetwork.globalObserver.globalStatistics  incoming_bytes  ETV
vector 2  SimpleUnderlayNetwork.globalObserver.globalStatistics  drops  ETV
vector 3  SimpleUnderlayNetwork.globalObserver.globalStatistics  delayed_acks  ETV
vector 4  SimpleUnderlayNetwork.globalObserver.globalStatistics  timetotimeouts  ETV
vector 5  SimpleUnderlayNetwork.globalObserver.globalStatistics  rate  ETV
vector 6  SimpleUnderlayNetwork.globalObserver.globalStatistics  "GlobalNodeList: Number of nodes"  ETV
vector 7  SimpleUnderlayNetwork.globalObserver.globalStatistics  "GlobalNodeList: Number of bootstrapped malicious nodes"  ETV
1	83997238	1017	88669
1	84080738	1018	88298
1	84164041	1019	86973
1	84248886	1020	91955
1	84333005	1021	89782
1	84417357	1022	89729
1	84500929	1023	88722
1	84584971	1024	89941
1	84668990	1025	89040
1	84753781	1026	91319
1	84837045	1027	87185
1	84921394	1028	89570
1	85005063	1029	89252
1	85089593	1030	91054
1	85173251	1031	87503
1	85256094	1032	87079
1	85341162	1033	92114
1	85423684	1034	85648
1	85507766	1035	88987
1	85591174	1036	88934
1	85676450	1037	91796
1	85759204	1038	86814
1	85843955	1039	90524
1	85926696	1040	86178
1	86010227	1041	88669
1	86094807	1042	90842
1	86179034	1043	88563
1	86263183	1044	90524
1	86346643	1045	88457
1	86431065	1046	89252
1	86515226	1047	89464
1	86599321	1048	89941
1	86682747	1049	88510
1	86767098	1050	89252
1	86851073	1051	90630
1	86936298	1052	91001
1	87019031	1053	86178
1	87103895	1054	90577
1	87186133	1055	85542
1	87270548	1056	90842
1	87355280	1057	90047
1	87439513	1058	90789
1	87522639	1059	87026
1	87605840	1060	86284
1	87689390	1061	89305
1	87772830	1062	88722
1	87856421	1063	88298
1	87940791	1064	89517
1	88026395	1065	92644
1	88110721	1066	89093
1	88195365	1067	91796
1	88280421	1068	90206
1	88364497	1069	89040
1	88450320	1070	93227
1	88535205	1071	91425
1	88619478	1072	89941
1	88704077	1073	91319
1	88787880	1074	89199
1	88871937	1075	88987
1	88955652	1076	89305
1	89039107	1077	87503
1	89124002	1078	90577
1	89209263	1079	92114
1	89293614	1080	90471
1	89377510	1081	88192
1	89461298	1082	89835
1	89545988	1083	90948
1	89629497	1084	87980
1	89713372	1085	90577
1	89798033	1086	88775
1	89882158	1087	90047
1	89966118	1088	88510
1	90050293	1089	90259
1	90134181	1090	88033
1	90217808	1091	89252
1	90302676	1092	90948
1	90386335	1093	88510
1	90470065	1094	89411
1	90554772	1095	90312
1	90639159	1096	90365
1	90723000	1097	88192
1	90806574	1098	88987
1	90889417	1099	86973
1	90972672	1100	88139
1	91057548	1101	91425
1	91141651	1102	88298
1	91225516	1103	89782
1	91310668	1104	91955
1	91393837	1105	86019
1	91478368	1106	91531
1	91563619	1107	90312
1	91647954	1108	89941
1	91732540	1109	91743
1	91817801	1110	90683
1	91901908	1111	89040
1	91987427	1112	93333
1	92071349	1113	88616
1	92155129	1114	89252
1	92238942	1115	88669
1	92322397	1116	88722
1	92405967	1117	88245
1	92490179	1118	89729
1	92573517	1119	87821
1	92658194	1120	90895
1	92742309	1121	89252
1	92826144	1122	89623
1	92909605	1123	87185
1	92992700	1124	88722
1	93077112	1125	89464
1	93161324	1126	90471
1	93245492	1127	88722
1	93330917	1128	92220
1	93414093	1129	87927
1	93498845	1130	91531
1	93583042	1131	89252
1	93666748	1132	89146
1	93751001	1133	89570
1	93835460	1134	88934
1	93920465	1135	91531
1	94004751	1136	89941
1	94089183	1137	90418
1	94173514	1138	89676
1	94257104	1139	88563
1	94341453	1140	91001
1	94425801	1141	89040
1	94510421	1142	91107
1	94593986	1143	89146
1	94678527	1144	89888
1	94762228	1145	88245
1	94846231	1146	88987
1	94929764	1147	88722
1	95014128	1148	90153
1	95098141	1149	89252
1	95182700	1150	90630
1	95266287	1151	88351
1	95351350	1152	91107
1	95435647	1153	89305
1	95520556	1154	91690
1	95604364	1155	88298
1	95689176	1156	91372
1	95773612	1157	90418
1	95858327	1158	90153
1	95942256	1159	89411
1	96026201	1160	89835
1	96110861	1161	90312
1	96194628	1162	89464
1	96278358	1163	87079
1	96361129	1164	88033
1	96446324	1165	91478
1	96529677	1166	87556
1	96612887	1167	87768
1	96696765	1168	89093
1	96779816	1169	87185
1	96864020	1170	90206
1	96947738	1171	88139
1	97030967	1172	87927
1	97114021	1173	87715
1	97198314	1174	89570
1	97281416	1175	87185
1	97365649	1176	89835
1	97449323	1177	88616
1	97533831	1178	90683
1	97617507	1179	87609
1	97701294	1180	89358
1	97784758	1181	88192
1	97869244	1182	89888
1	97952739	1183	88775
1	98036316	1184	88139
1	98120254	1185	89888
1	98204828	1186	89623
1	98286575	1187	84800
1	98371242	1188	90683
1	98454831	1189	88616
1	98539147	1190	89570
1	98622300	1191	87132
1	98705671	1192	88192
1	98790166	1193	90365
1	98874616	1194	91001
1	98958311	1195	88616
1	99042183	1196	89464
1	99126404	1197	89676
1	99209900	1198	88033
1	99293530	1199	88139
1	99378244	1200	91372
1	99462042	1201	88828
1	99546346	1202	90471
1	99630587	1203	87715
1	99714986	1204	90789
1	99798791	1205	88457
1	99883204	1206	90948
1	99967609	1207	89835
1	100050406	1208	86178
1	100133996	1209	88987
1	100217885	1210	88722
1	100300374	1211	86708
1	100385439	1212	90736
1	100469189	1213	89676
1	100553806	1214	90683
1	100637032	1215	87450
1	100721557	1216	90418
1	100804914	1217	87768
1	100889603	1218	90312
1	100972830	1219	87185
1	101058119	1220	92591
1	101141421	1221	88351
1	101225752	1222	89411
1	101308660	1223	87344
1	101392643	1224	89305
1	101476732	1225	89782
1	101560047	1226	86973
1	101645048	1227	91690
1	101729555	1228	89358
1	101814257	1229	90842
1	101897501	1230	88457
1	101982215	1231	90153
1	102065668	1232	87397
1	102149887	1233	90047
1	102232681	1234	85489
1	102315779	1235	89252
1	102400295	1236	89464
1	102483048	1237	86920
1	102566884	1238	88563
1	102650684	1239	89040
1	102734506	1240	88775
1	102818210	1241	88139
1	102902411	1242	91054
1	102986015	1243	87927
1	103069932	1244	89305
1	103153889	1245	88881
1	103237513	1246	88722
1	103321504	1247	88298
1	103404867	1248	89252
1	103489591	1249	90312
1	103574472	1250	91743
1	103658797	1251	89782
1	103742276	1252	88722
1	103827656	1253	91319
1	103910022	1254	85277
1	103993633	1255	89994
1	104078266	1256	90153
1	104160812	1257	86337
1	104245492	1258	90842
1	104329599	1259	88192
1	104414002	1260	90524
1	104497910	1261	89146
1	104581159	1262	87556
1	104665163	1263	90100
1	104749183	1264	88510
1	104832223	1265	87662
1	104916065	1266	89093
1	105001084	1267	91584
1	105085214	1268	88775
1	105169527	1269	90153
1	105253117	1270	88033
1	105338036	1271	91372
1	105421268	1272	87980
1	105505832	1273	90789
1	105588806	1274	86178
1	105673600	1275	91425
1	105757148	1276	88669
1	105841001	1277	89093
1	105924804	1278	88987
1	106008622	1279	88881
1	106092530	1280	88563
1	106177457	1281	91584
1	106262045	1282	90524
1	106347068	1283	91955
1	106430924	1284	87874
1	106514401	1285	88245
1	106597550	1286	88086
1	106681195	1287	88086
1	106765604	1288	91213
1	106850031	1289	89199
1	106933162	1290	89358
1	107017591	1291	89623
1	107101478	1292	85807
1	107186397	1293	93545
1	107271599	1294	92008
1	107355856	1295	88722
1	107439498	1296	89305
1	107523593	1297	89623
1	107607805	1298	88245
1	107690469	1299	88192
1	107775061	1300	88881
1	107857477	1301	87026
1	107941837	1302	90365
1	108026176	1303	90206
1	108109140	1304	87079
1	108193388	1305	89994
1	108277916	1306	90259
1	108362629	1307	90047
1	108446015	1308	88987
1	108530458	1309	90259
1	108614709	1310	89199
1	108698799	1311	89676
1	108782761	1312	87132
1	108866843	1313	89676
1	108950521	1314	89464
1	109035109	1315	89888
1	109118742	1316	89305
1	109201749	1317	86814
1	109285343	1318	88934
1	109368326	1319	86973
1	109452853	1320	90206
1	109536940	1321	90365
1	109621445	1322	89305
1	109705859	1323	90206
1	109788991	1324	87556
1	109873314	1325	90047
1	109957326	1326	88351
1	110040606	1327	88139
1	110125707	1328	91531
1	110208944	1329	87450
1	110293984	1330	91902
1	110376245	1331	85436
1	110460599	1332	90736
1	110542886	1333	84747
1	110628211	1334	91849
1	110710047	1335	83899
1	110794398	1336	90100
1	110878480	1337	90471
1	110963121	1338	90418
1	111046484	1339	87768
1	111130027	1340	88033
1	111212753	1341	86390
1	111296575	1342	89623
1	111380153	1343	88563
1	111464722	1344	90683
1	111549446	1345	91107
1	111633592	1346	88351
1	111717569	1347	89941
1	111801403	1348	88669
1	111884345	1349	87556
1	111969255	1350	91372
1	112053764	1351	89199
1	112138023	1352	89411
1	112221209	1353	87450
1	112305051	1354	90100
1	112390080	1355	92008
1	112473133	1356	86602
1	112557900	1357	91319
1	112641267	1358	87715
1	112724667	1359	87344
1	112808300	1360	88722
1	112892850	1361	90736
1	112977599	1362	90683
1	113061509	1363	89676
1	113144924	1364	87662
1	113228997	1365	90100
1	113312856	1366	88563
1	113395959	1367	87132
1	113479615	1368	88775
1	113563634	1369	89199
1	113647488	1370	88881
1	113731550	1371	90630
1	113815936	1372	89888
1	113900282	1373	90312
1	113984498	1374	88298
1	114068336	1375	89464
1	114152313	1376	89040
1	114234617	1377	85754
1	114318556	1378	89623
1	114401838	1379	87238
1	114485030	1380	87291
1	114567872	1381	87821
1	114651701	1382	88828
1	114734977	1383	86973
1	114819208	1384	90842
1	114902749	1385	87821
1	114986965	1386	90206
1	115070460	1387	88086
1	115154900	1388	90948
1	115238863	1389	88033
1	115321146	1390	84906
1	115405109	1391	89782
1	115488433	1392	87874
1	115572364	1393	89040
1	115656431	1394	89199
1	115739287	1395	86496
1	115824191	1396	92273
1	115908153	1397	89146
1	115991426	1398	88192
1	116075998	1399	89835
1	116159827	1400	89517
1	116243634	1401	88775
1	116327498	1402	88722
1	116411922	1403	90630
1	116495010	1404	86920
1	116579006	1405	89411
1	116663198	1406	89676
1	116748297	1407	91478
1	116832838	1408	90683
1	116917421	1409	89676
1	117002493	1410	91902
1	117087536	1411	91425
1	117171265	1412	88192
1	117255411	1413	90312
1	117339620	1414	89040
1	117423065	1415	88351
1	117507012	1416	89411
1	117590613	1417	88404
1	117674508	1418	89517
1	117758965	1419	89835
1	117841835	1420	86496
1	117925655	1421	89464
1	118009063	1422	87662
1	118093077	1423	90312
1	118176885	1424	88669
1	118260494	1425	88828
1	118344335	1426	88616
1	118427582	1427	88139
1	118511512	1428	88881
1	118595802	1429	89517
1	118679446	1430	87609
1	118764278	1431	92008
1	118849502	1432	91531
1	118934633	1433	91690
1	119019425	1434	89941
1	119103767	1435	91001
1	119189135	1436	92008
1	119272497	1437	87026
1	119356544	1438	90365
1	119439358	1439	86814
1	119524447	1440	91266
1	119609482	1441	91743
1	119693282	1442	89464
1	119777418	1443	90047
1	119862019	1444	90153
1	119946806	1445	91107
1	120030798	1446	88351
1	120114589	1447	87556
1	120197072	1448	87079
1	120282270	1449	92273
1	120367105	1450	90683
1	120450737	1451	87768
1	120534417	1452	89464
1	120618356	1453	89464
1	120702433	1454	89040
1	120785927	1455	89146
1	120871043	1456	91372
1	120954033	1457	86867
1	121038332	1458	89729
1	121121453	1459	86708
1	121205263	1460	88987
1	121288776	1461	88669
1	121372894	1462	90895
1	121457366	1463	89517
1	121540761	1464	88298
1	121624499	1465	88457
1	121707247	1466	86867
1	121791855	1467	91107
1	121876685	1468	91054
1	121961233	1469	89782
1	122045440	1470	89941
1	122130973	1471	92326
1	122214659	1472	88192
1	122298248	1473	88616
1	122383570	1474	91584
1	122466646	1475	86761
1	122550382	1476	89358
1	122633906	1477	88775
1	122717189	1478	87874
1	122800655	1479	88457
1	122884489	1480	88669
1	122968554	1481	89835
1	123051871	1482	87132
1	123135871	1483	89570
1	123219467	1484	88404
1	123302892	1485	87291
1	123385800	1486	87397
1	123469433	1487	89464
1	123553073	1488	87132
1	123637303	1489	90630
1	123720091	1490	86761
1	123803846	1491	88828
1	123887723	1492	88563
1	123970888	1493	88563
1	124054954	1494	89146
1	124138502	1495	86549
1	124222396	1496	90365
1	124305913	1497	88404
1	124390825	1498	90471
1	124474802	1499	89199
1	124558718	1500	88616
1	124643410	1501	90948
1	124726406	1502	86231
1	124810737	1503	90736
1	124893898	1504	87344
1	124978418	1505	90471
1	125063138	1506	91160
1	125147570	1507	90365
1	125231617	1508	89358
1	125316265	1509	90365
1	125399752	1510	88881
1	125485009	1511	91160
1	125569063	1512	90524
1	125653612	1513	89199
1	125737305	1514	88669
1	125822048	1515	90895
1	125905955	1516	89093
1	125990432	1517	90789
1	126073585	1518	87026
1	126157428	1519	89040
1	126241255	1520	89199
1	126325209	1521	89411
1	126408931	1522	88563
1	126493377	1523	89888
1	126577356	1524	89252
1	126661980	1525	90842
1	126746400	1526	89305
1	126830539	1527	89411
1	126913691	1528	86973
1	126996669	1529	87662
1	127080947	1530	89835
1	127164030	1531	87238
1	127248041	1532	89570
1	127331779	1533	89252
1	127415573	1534	88298
1	127498416	1535	85595
1	127581400	1536	88298
1	127664985	1537	88298
1	127749607	1538	91001
1	127833843	1539	88722
1	127916508	1540	86814
1	128000508	1541	90206
1	128084564	1542	89676
1	128168657	1543	88510
1	128251814	1544	87291
1	128335415	1545	89040
1	128418792	1546	88563
1	128503489	1547	90736
1	128588192	1548	90895
1	128672947	1549	90948
1	128758656	1550	92538
1	128843493	1551	89305
1	128927580	1552	89305
1	129013298	1553	92856
1	129097629	1554	89517
1	129182154	1555	90948
1	129267634	1556	92061
1	129352523	1557	91690
1	129436798	1558	89358
1	129519297	1559	86867
1	129603731	1560	90153
1	129687654	1561	89040
1	129770634	1562	87238
1	129854168	1563	88669
1	129937459	1564	87609
1	130020252	1565	87344
1	130104872	1566	90259
1	130186974	1567	85171
1	130270601	1568	88934
1	130355401	1569	91160
1	130439791	1570	90471
1	130524057	1571	89729
1	130607911	1572	88669
1	130691886	1573	89517
1	130776766	1574	91319
1	130859470	1575	86178
1	130943476	1576	89517
1	131027444	1577	88987
1	131111395	1578	89199
1	131195490	1579	89623
1	131279463	1580	88828
1	131363755	1581	89517
1	131446096	1582	85701
1	131530029	1583	89570
1	131613605	1584	87344
1	131697346	1585	89252
1	131780702	1586	88192
1	131865774	1587	91266
1	131948910	1588	87874
1	132032899	1589	89199
1	132116700	1590	89252
1	132200282	1591	88457
1	132284792	1592	90736
1	132369155	1593	90206
1	132453768	1594	89888
1	132537886	1595	89093
1	132621770	1596	88457
1	132706107	1597	90471
1	132790177	1598	89570
1	132874021	1599	88934
1	132958268	1600	90524
1	133041989	1601	88510
1	133125693	1602	87874
1	133210459	1603	91425
1	133295625	1604	90736
1	133379691	1605	89199
1	133463394	1606	89411
1	133546816	1607	87662
1	133631400	1608	90789
1	133714372	1609	87132
1	133799306	1610	91637
1	133881984	1611	85436
1	133965741	1612	89570
1	134050039	1613	89464
1	134134563	1614	90471
1	134218458	1615	89040
1	134301472	1616	87662
1	134385907	1617	89464
1	134470760	1618	92008
1	134556102	1619	90789
1	134639833	1620	88510
1	134724617	1621	91266
1	134808407	1622	87874
1	134892477	1623	89888
1	134976945	1624	88934
1	135060400	1625	88616
1	135146213	1626	93068
1	135229135	1627	87344
1	135312573	1628	88086
1	135396560	1629	89729
1	135480429	1630	88775
1	135563616	1631	87662
1	135647919	1632	89464
1	135731603	1633	89623
1	135815456	1634	88033
1	135898825	1635	87874
1	135982427	1636	88245
1	136066435	1637	89729
1	136150197	1638	89835
1	136234315	1639	88192
1	136317416	1640	88510
1	136401972	1641	90047
1	136486604	1642	90524
1	136571588	1643	91319
1	136656050	1644	89517
1	136740028	1645	89676
1	136824184	1646	89358
1	136907934	1647	89252
1	136991325	1648	87185
1	137075665	1649	90789
1	137160703	1650	90948
1	137244388	1651	89411
1	137328427	1652	88192
1	137410893	1653	86602
1	137494752	1654	89411
1	137578841	1655	89729
1	137663226	1656	89623
1	137747749	1657	89570
1	137831272	1658	89040
1	137915912	1659	90418
1	137999093	1660	88086
1	138082925	1661	90259
1	138167880	1662	90365
1	138251644	1663	88404
1	138335321	1664	88510
1	138420686	1665	91955
1	138504070	1666	88086
1	138587715	1667	88139
1	138670898	1668	88245
1	138755829	1669	90789
1	138838682	1670	86072
1	138922872	1671	90206
1	139006075	1672	87397
1	139090669	1673	89835
1	139175637	1674	92432
1	139259495	1675	88404
1	139344632	1676	91425
1	139427938	1677	88086
1	139511718	1678	89040
1	139595325	1679	88139
1	139677575	1680	85913
1	139761505	1681	89517
1	139844644	1682	85966
1	139929090	1683	92432
1	140013063	1684	88245
1	140096073	1685	87185
1	140180848	1686	91637
1	140264407	1687	87821
1	140347300	1688	86761
1	140432092	1689	90630
1	140515892	1690	89305
1	140600316	1691	90418
1	140683884	1692	87768
1	140768126	1693	90153
1	140850097	1694	84270
1	140934205	1695	90471
1	141018250	1696	89570
1	141102212	1697	88775
1	141186064	1698	89305
1	141269937	1699	89570
1	141353300	1700	88033
1	141438315	1701	90471
1	141521259	1702	87185
1	141606670	1703	92326
1	141689487	1704	86496
1	141774073	1705	90100
1	141857751	1706	89199
1	141943075	1707	91160
1	142026274	1708	88351
1	142110131	1709	89464
1	142194806	1710	90948
1	142278078	1711	86920
1	142362502	1712	90312
1	142447119	1713	90312
1	142530839	1714	89093
1	142615955	1715	90736
1	142700295	1716	88987
1	142784297	1717	89941
1	142867417	1718	87079
1	142952000	1719	90895
1	143036350	1720	89570
1	143120678	1721	90259
1	143204093	1722	88669
1	143287603	1723	88351
1	143371919	1724	89994
1	143455616	1725	88192
1	143540509	1726	90153
1	143624937	1727	90630
1	143709556	1728	90789
1	143793641	1729	88616
1	143876719	1730	88351
1	143960857	1731	89570
1	144044035	1732	86814
1	144127375	1733	88828
1	144211765	1734	90100
1	144295393	1735	87927
1	144379640	1736	90789
1	144464544	1737	90153
1	144548355	1738	89305
1	144632232	1739	88192
1	144715793	1740	88828
1	144799968	1741	89252
1	144883800	1742	89358
1	144967766	1743	89093
1	145051053	1744	87821
1	145135758	1745	91054
1	145219069	1746	87397
1	145303450	1747	90259
1	145386545	1748	87079
1	145470641	1749	89729
1	145554653	1750	89517
1	145637901	1751	87768
1	145721094	1752	87132
1	145804580	1753	88086
1	145889428	1754	91584
1	145973274	1755	87821
1	146057291	1756	89676
1	146141359	1757	89623
1	146224933	1758	88775
1	146309177	1759	89623
1	146392008	1760	88457
1	146477621	1761	91425
1	146559523	1762	85118
1	146644223	1763	90683
1	146728629	1764	89358
1	146813297	1765	90153
1	146897356	1766	89146
1	146981210	1767	89570
1	147065694	1768	90524
1	147151110	1769	92114
1	147234791	1770	88404
1	147318903	1771	88563
1	147403851	1772	92167
1	147488529	1773	89570
1	147572159	1774	88669
1	147657248	1775	91266
1	147741873	1776	91213
1	147825791	1777	87821
1	147909553	1778	90577
1	147993649	1779	88033
1	148077248	1780	90471
1	148161689	1781	89835
1	148246024	1782	89252
1	148330726	1783	90895
1	148413516	1784	86867
1	148498769	1785	91902
1	148582742	1786	89517
1	148666398	1787	89093
1	148750424	1788	87715
1	148833371	1789	87715
1	148917994	1790	91478
1	149002504	1791	88934
1	149086669	1792	90312
1	149170278	1793	87397
1	149253618	1794	88457
1	149337954	1795	90259
1	149420848	1796	86867
1	149505578	1797	91584
1	149590238	1798	88934
1	149674546	1799	89517
1	149759249	1800	91054
1	149844620	1801	90842
1	149929238	1802	91637
1	150014060	1803	90842
1	150099390	1804	92485
1	150184220	1805	90206
1	150268413	1806	90630
1	150353399	1807	92061
1	150436674	1808	86867
1	150521638	1809	91372
1	150605483	1810	88139
1	150689964	1811	91372
1	150774060	1812	89888
1	150858456	1813	88934
1	150942644	1814	90630
1	151027266	1815	90100
1	151111404	1816	89040
1	151193518	1817	85913
1	151278000	1818	90153
1	151361584	1819	88086
1	151447092	1820	92114
1	151531729	1821	90365
1	151616737	1822	91372
1	151702961	1823	93174
1	151787069	1824	88722
1	151872137	1825	91796
1	151956189	1826	90206
1	152039017	1827	87185
1	152123791	1828	90524
1	152207216	1829	88510
1	152291553	1830	89729
1	152375576	1831	88775
1	152460024	1832	89994
1	152543384	1833	88510
1	152627716	1834	89835
1	152712459	1835	89941
1	152795245	1836	87185
1	152877780	1837	85383
1	152961020	1838	88457
1	153045718	1839	91478
1	153129077	1840	86019
1	153213332	1841	89835
1	153296370	1842	87927
1	153380214	1843	90047
1	153464030	1844	87556
1	153547396	1845	88510
1	153632027	1846	90312
1	153715750	1847	88669
1	153799972	1848	90206
1	153883967	1849	89040
1	153967744	1850	89358
1	154051200	1851	88033
1	154135294	1852	89835
1	154219342	1853	88722
1	154302946	1854	88404
1	154388018	1855	91849
1	154472440	1856	88828
1	154555811	1857	88828
1	154639460	1858	87397
1	154723927	1859	90312
1	154807703	1860	88987
1	154891360	1861	88828
1	154975135	1862	89199
1	155059363	1863	89676
1	155144121	1864	91001
1	155228653	1865	90683
1	155313839	1866	91584
1	155397921	1867	90312
1	155481351	1868	86231
1	155564826	1869	89146
1	155648469	1870	88775
1	155732971	1871	89782
1	155815756	1872	85754
1	155900252	1873	92167
1	155984779	1874	89517
1	156070254	1875	91690
1	156154327	1876	89358
1	156238757	1877	90206
1	156322623	1878	88563
1	156407629	1879	92114
1	156492348	1880	90418
1	156576442	1881	89252
1	156661161	1882	90842
1	156744917	1883	88033
1	156828806	1884	89941
1	156913723	1885	90577
1	156998441	1886	90895
1	157082996	1887	90047
1	157168456	1888	93015
1	157252747	1889	88404
1	157336860	1890	90577
1	157420972	1891	88616
1	157504281	1892	87927
1	157587867	1893	89517
1	157672089	1894	89888
1	157755663	1895	88775
1	157839058	1896	87238
1	157923907	1897	90789
1	158007663	1898	88775
1	158092034	1899	90100
1	158175817	1900	87874
1	158260398	1901	91425
1	158343598	1902	86867
1	158427971	1903	90789
1	158510585	1904	85701
1	158595084	1905	90736
1	158679018	1906	89093
1	158763423	1907	90259
1	158847445	1908	89464
1	158931559	1909	89358
1	159015608	1910	89199
1	159100502	1911	90683
1	159184989	1912	90100
1	159268628	1913	89782
1	159353052	1914	88722
1	159437233	1915	90683
1	159522470	1916	91425
1	159606529	1917	89570
1	159690360	1918	88616
1	159774520	1919	90736
1	159858141	1920	87662
1	159942947	1921	90895
1	160027331	1922	88616
1	160111629	1923	90471
1	160195441	1924	89093
1	160280692	1925	90842
1	160365454	1926	91054
1	160450132	1927	90948
1	160534082	1928	88086
1	160619294	1929	92856
1	160703895	1930	89729
1	160787001	1931	87874
1	160871368	1932	90471
1	160954656	1933	86920
1	161038895	1934	90683
1	161123124	1935	89888
1	161207179	1936	88616
1	161291147	1937	89623
1	161374709	1938	88669
1	161458607	1939	89040
1	161542236	1940	89040
1	161626504	1941	89623
1	161710351	1942	89252
1	161794510	1943	89040
1	161877395	1944	87821
1	161961908	1945	89835
1	162045884	1946	89464
1	162130570	1947	90577
1	162214379	1948	88616
1	162298152	1949	89464
1	162382497	1950	90259
1	162465265	1951	86019
1	162549182	1952	89994
1	162632019	1953	86655
1	162716875	1954	90524
1	162799614	1955	86390
1	162884340	1956	90630
1	162967964	1957	88775
1	163051056	1958	87662
1	163134679	1959	89040
1	163218272	1960	87609
1	163302574	1961	89941
1	163386632	1962	89729
1	163470697	1963	89411
1	163553525	1964	86337
1	163637710	1965	90471
1	163721485	1966	88510
1	163804439	1967	86602
1	163887599	1968	87768
1	163972457	1969	92061
1	164056230	1970	87768
1	164140270	1971	89570
1	164223847	1972	89517
1	164309324	1973	91584
1	164393563	1974	89464
1	164478387	1975	90418
1	164561921	1976	88033
1	164644371	1977	85807
1	164727527	1978	88934
1	164811183	1979	88563
1	164895160	1980	89146
1	164978480	1981	87609
1	165062415	1982	89888
1	165146937	1983	90365
1	165231587	1984	90736
1	165314485	1985	85436
1	165398311	1986	89782
1	165481321	1987	85966
1	165565609	1988	91690
1	165649588	1989	87556
1	165733882	1990	91266
1	165817549	1991	86973
1	165901694	1992	91001
1	165985911	1993	89464
1	166070089	1994	89941
1	166154109	1995	89729
1	166238436	1996	89040
1	166323173	1997	91319
1	166406846	1998	88828
1	166490195	1999	87556
2	83997238	1017	30
2	84080738	1018	62
2	84164041	1019	6
2	84248886	1020	40
2	84333005	1021	27
2	84417357	1022	37
2	84500929	1023	30
2	84584971	1024	40
2	84668990	1025	4
2	84753781	1026	60
2	84837045	1027	25
2	84921394	1028	16
2	85005063	1029	20
2	85089593	1030	57
2	85173251	1031	53
2	85256094	1032	17
2	85341162	1033	67
2	85423684	1034	17
2	85507766	1035	69
2	85591174	1036	10
2	85676450	1037	71
2	85759204	1038	21
2	85843955	1039	57
2	85926696	1040	30
2	86010227	1041	17
2	86094807	1042	67
2	86179034	1043	9
2	86263183	1044	43
2	86346643	1045	56
2	86431065	1046	57
2	86515226	1047	26
2	86599321	1048	22
2	86682747	1049	36
2	86767098	1050	59
2	86851073	1051	4
2	86936298	1052	104
2	87019031	1053	12
2	87103895	1054	78
2	87186133	1055	15
2	87270548	1056	41
2	87355280	1057	38
2	87439513	1058	38
2	87522639	1059	48
2	87605840	1060	43
2	87689390	1061	44
2	87772830	1062	29
2	87856421	1063	21
2	87940791	1064	46
2	88026395	1065	71
2	88110721	1066	9
2	88195365	1067	51
2	88280421	1068	59
2	88364497	1069	21
2	88450320	1070	64
2	88535205	1071	47
2	88619478	1072	12
2	88704077	1073	31
2	88787880	1074	20
2	88871937	1075	18
2	88955652	1076	67
2	89039107	1077	41
2	89124002	1078	19
2	89209263	1079	50
2	89293614	1080	47
2	89377510	1081	43
2	89461298	1082	19
2	89545988	1083	52
2	89629497	1084	11
2	89713372	1085	53
2	89798033	1086	30
2	89882158	1087	66
2	89966118	1088	9
2	90050293	1089	51
2	90134181	1090	50
2	90217808	1091	21
2	90302676	1092	49
2	90386335	1093	18
2	90470065	1094	30
2	90554772	1095	22
2	90639159	1096	41
2	90723000	1097	32
2	90806574	1098	60
2	90889417	1099	25
2	90972672	1100	27
2	91057548	1101	46
2	91141651	1102	26
2	91225516	1103	5
2	91310668	1104	105
2	91393837	1105	16
2	91478368	1106	48
2	91563619	1107	73
2	91647954	1108	19
2	91732540	1109	23
2	91817801	1110	84
2	91901908	1111	19
2	91987427	1112	62
2	92071349	1113	46
2	92155129	1114	33
2	92238942	1115	20
2	92322397	1116	35
2	92405967	1117	25
2	92490179	1118	47
2	92573517	1119	23
2	92658194	1120	42
2	92742309	1121	31
2	92826144	1122	48
2	92909605	1123	64
2	92992700	1124	25
2	93077112	1125	43
2	93161324	1126	45
2	93245492	1127	11
2	93330917	1128	62
2	93414093	1129	5
2	93498845	1130	35
2	93583042	1131	50
2	93666748	1132	31
2	93751001	1133	66
2	93835460	1134	34
2	93920465	1135	45
2	94004751	1136	18
2	94089183	1137	35
2	94173514	1138	63
2	94257104	1139	9
2	94341453	1140	51
2	94425801	1141	18
2	94510421	1142	23
2	94593986	1143	24
2	94678527	1144	56
2	94762228	1145	42
2	94846231	1146	40
2	94929764	1147	24
2	95014128	1148	59
2	95098141	1149	14
2	95182700	1150	40
2	95266287	1151	25
2	95351350	1152	67
2	95435647	1153	9
2	95520556	1154	82
2	95604364	1155	12
2	95689176	1156	37
2	95773612	1157	35
2	95858327	1158	54
2	95942256	1159	38
2	96026201	1160	27
2	96110861	1161	32
2	96194628	1162	61
2	96278358	1163	65
2	96361129	1164	12
2	96446324	1165	33
2	96529677	1166	51
2	96612887	1167	21
2	96696765	1168	53
2	96779816	1169	26
2	96864020	1170	39
2	96947738	1171	44
2	97030967	1172	48
2	97114021	1173	9
2	97198314	1174	65
2	97281416	1175	31
2	97365649	1176	50
2	97449323	1177	35
2	97533831	1178	51
2	97617507	1179	32
2	97701294	1180	51
2	97784758	1181	27
2	97869244	1182	63
2	97952739	1183	47
2	98036316	1184	30
2	98120254	1185	47
2	98204828	1186	87
2	98286575	1187	25
2	98371242	1188	29
2	98454831	1189	27
2	98539147	1190	46
2	98622300	1191	38
2	98705671	1192	26
2	98790166	1193	19
2	98874616	1194	39
2	98958311	1195	26
2	99042183	1196	6
2	99126404	1197	38
2	99209900	1198	28
2	99293530	1199	23
2	99378244	1200	45
2	99462042	1201	33
2	99546346	1202	88
2	99630587	1203	29
2	99714986	1204	50
2	99798791	1205	28
2	99883204	1206	33
2	99967609	1207	81
2	100050406	1208	19
2	100133996	1209	35
2	100217885	1210	69
2	100300374	1211	8
2	100385439	1212	30
2	100469189	1213	15
2	100553806	1214	56
2	100637032	1215	38
2	100721557	1216	57
2	100804914	1217	18
2	100889603	1218	75
2	100972830	1219	6
2	101058119	1220	54
2	101141421	1221	24
2	101225752	1222	62
2	101308660	1223	6
2	101392643	1224	32
2	101476732	1225	73
2	101560047	1226	13
2	101645048	1227	87
2	101729555	1228	20
2	101814257	1229	53
2	101897501	1230	33
2	101982215	1231	103
2	102065668	1232	23
2	102149887	1233	103
2	102232681	1234	43
2	102315779	1235	38
2	102400295	1236	47
2	102483048	1237	33
2	102566884	1238	52
2	102650684	1239	27
2	102734506	1240	47
2	102818210	1241	45
2	102902411	1242	34
2	102986015	1243	19
2	103069932	1244	37
2	103153889	1245	21
2	103237513	1246	51
2	103321504	1247	23
2	103404867	1248	32
2	103489591	1249	15
2	103574472	1250	31
2	103658797	1251	21
2	103742276	1252	20
2	103827656	1253	96
2	103910022	1254	5
2	103993633	1255	22
2	104078266	1256	70
2	104160812	1257	23
2	104245492	1258	73
2	104329599	1259	45
2	104414002	1260	38
2	104497910	1261	54
2	104581159	1262	18
2	104665163	1263	40
2	104749183	1264	46
2	104832223	1265	48
2	104916065	1266	5
2	105001084	1267	69
2	105085214	1268	22
2	105169527	1269	57
2	105253117	1270	21
2	105338036	1271	57
2	105421268	1272	12
2	105505832	1273	92
2	105588806	1274	3
2	105673600	1275	40
2	105757148	1276	29
2	105841001	1277	31
2	105924804	1278	32
2	106008622	1279	33
2	106092530	1280	18
2	106177457	1281	44
2	106262045	1282	14
2	106347068	1283	78
2	106430924	1284	44
2	106514401	1285	44
2	106597550	1286	32