version 2
run QLearnCC-0-20100707-11:15:25-5576
attr alpha 0.1
attr configname QLearnCC
attr datetime 20100707-11:15:25
attr epsilon 0.1
attr experiment QLearnCC
attr inifile D:/Developement/Oversim2/multic/simulations/omnetpp.ini
attr iterationvars "$alpha=0.1, $lamda=1.0, $reinfup=0.5, $epsilon=0.1"
attr iterationvars2 "$alpha=0.1, $lamda=1.0, $reinfup=0.5, $epsilon=0.1, $repetition=0"
attr lamda 1.0
attr measurement "$alpha=0.1, $lamda=1.0, $reinfup=0.5, $epsilon=0.1"
attr network oversim.underlay.simpleunderlay.SimpleUnderlayNetwork
attr processid 5576
attr reinfup 0.5
attr repetition 0
attr replication #0
attr resultdir results
attr runnumber 0
attr seedset 0

vector 1  SimpleUnderlayNetwork.globalObserver.globalStatistics  incoming_bytes  ETV
vector 2  SimpleUnderlayNetwork.globalObserver.globalStatistics  drops  ETV
vector 3  SimpleUnderlayNetwork.globalObserver.globalStatistics  9rateOf1To0  ETV
vector 4  SimpleUnderlayNetwork.globalObserver.globalStatistics  max9RateOf1To0  ETV
vector 5  SimpleUnderlayNetwork.globalObserver.globalStatistics  9rateOf1To1  ETV
vector 6  SimpleUnderlayNetwork.globalObserver.globalStatistics  max9RateOf1To1  ETV
vector 7  SimpleUnderlayNetwork.globalObserver.globalStatistics  9rateOf1To2  ETV
vector 8  SimpleUnderlayNetwork.globalObserver.globalStatistics  max9RateOf1To2  ETV
vector 9  SimpleUnderlayNetwork.globalObserver.globalStatistics  9rateOf1To3  ETV
vector 10  SimpleUnderlayNetwork.globalObserver.globalStatistics  max9RateOf1To3  ETV
vector 11  SimpleUnderlayNetwork.globalObserver.globalStatistics  9rateOf1To4  ETV
vector 12  SimpleUnderlayNetwork.globalObserver.globalStatistics  max9RateOf1To4  ETV
vector 13  SimpleUnderlayNetwork.globalObserver.globalStatistics  9rateOf1To5  ETV
vector 14  SimpleUnderlayNetwork.globalObserver.globalStatistics  max9RateOf1To5  ETV
vector 15  SimpleUnderlayNetwork.globalObserver.globalStatistics  9rateOf1To6  ETV
vector 16  SimpleUnderlayNetwork.globalObserver.globalStatistics  max9RateOf1To6  ETV
vector 17  SimpleUnderlayNetwork.globalObserver.globalStatistics  9rateOf1To7  ETV
vector 18  SimpleUnderlayNetwork.globalObserver.globalStatistics  max9RateOf1To7  ETV
vector 19  SimpleUnderlayNetwork.globalObserver.globalStatistics  9rateOf1To8  ETV
vector 20  SimpleUnderlayNetwork.globalObserver.globalStatistics  max9RateOf1To8  ETV
vector 21  SimpleUnderlayNetwork.globalObserver.globalStatistics  9rateOf1To9  ETV
vector 22  SimpleUnderlayNetwork.globalObserver.globalStatistics  max9RateOf1To9  ETV
vector 23  SimpleUnderlayNetwork.globalObserver.globalStatistics  1rate  ETV
vector 24  SimpleUnderlayNetwork.globalObserver.globalStatistics  max2Rate  ETV
vector 25  SimpleUnderlayNetwork.globalObserver.globalStatistics  "GlobalNodeList: Number of nodes"  ETV
vector 26  SimpleUnderlayNetwork.globalObserver.globalStatistics  "GlobalNodeList: Number of bootstrapped malicious nodes"  ETV
1	4491610	119	90789
1	4539408	120	90206
1	4587375	121	90736
1	4635316	122	90524
1	4683003	123	89941
1	4730848	124	89888
1	4778715	125	90153
1	4826644	126	89517
1	4874183	127	90683
1	4922442	128	90577
1	4970185	129	91266
1	5018104	130	89146
1	5066258	131	91160
1	5113498	132	90047
1	5161901	133	91001
1	5209031	134	88298
1	5257102	135	91001
1	5304810	136	89570
1	5352954	137	91478
1	5400901	138	89835
1	5448471	139	90418
1	5496235	140	90100
1	5544812	141	91266
1	5592006	142	88775
1	5640429	143	92750
1	5688176	144	89411
1	5736193	145	90365
1	5783966	146	90206
1	5831632	147	89994
1	5879115	148	89358
1	5927549	149	92167
1	5975176	150	89411
1	6022905	151	88934
1	6070955	152	91690
1	6119124	153	89888
1	6166780	154	90683
1	6214325	155	89252
1	6262323	156	90736
1	6310173	157	90047
1	6358517	158	91637
1	6405947	159	88987
1	6454443	160	92538
1	6501142	161	86390
1	6549865	162	92962
1	6597471	163	90312
1	6645153	164	90206
1	6692993	165	89464
1	6740863	166	91107
1	6789367	167	91849
1	6836842	168	88934
1	6884629	169	90577
1	6932638	170	90630
1	6980035	171	89729
1	7028495	172	91372
1	7076334	173	90365
1	7123526	174	88086
1	7171939	175	92273
1	7220081	176	91107
1	7267680	177	89729
1	7315707	178	90736
1	7363740	179	91001
1	7411295	180	89146
1	7459681	181	92114
1	7507376	182	89411
1	7555089	183	91266
1	7603015	184	89941
1	7651274	185	91213
1	7698446	186	88934
1	7746709	187	90842
1	7794584	188	91001
1	7842732	189	91319
1	7890175	190	89888
1	7938246	191	90153
1	7986002	192	89941
1	8034290	193	91743
1	8081909	194	89941
1	8130116	195	90577
1	8177943	196	90100
1	8225951	197	90630
1	8273704	198	90948
1	8321374	199	88775
1	8369731	200	91213
1	8416923	201	89888
1	8465643	202	91955
1	8512937	203	88669
1	8560366	204	90047
1	8608370	205	90047
1	8656295	206	90365
1	8704085	207	90736
1	8752552	208	92167
1	8800343	209	89888
1	8848368	210	90683
1	8896406	211	90895
1	8943522	212	88086
1	8991423	213	90948
1	9039012	214	89252
1	9087115	215	90842
1	9134732	216	90259
1	9183000	217	90577
1	9230613	218	89252
1	9278243	219	90524
1	9326146	220	90312
1	9373707	221	88616
1	9421525	222	90524
1	9469183	223	90842
1	9516953	224	89570
1	9565372	225	91372
1	9613077	226	90630
1	9660702	227	89464
1	9708923	228	92644
1	9756505	229	88404
1	9804905	230	92114
1	9852500	231	89729
1	9900293	232	89623
1	9948032	233	91054
1	9996354	234	90524
1	10043265	235	88510
1	10091984	236	91955
1	10139009	237	88881
1	10187146	238	91213
1	10234804	239	89358
1	10282944	240	90683
1	10330680	241	90471
1	10378691	242	90365
1	10426092	243	89623
1	10474299	244	91266
1	10522218	245	90259
1	10570168	246	90365
1	10618110	247	90259
1	10665891	248	89994
1	10713819	249	91107
1	10761885	250	90948
1	10809299	251	88828
1	10857482	252	91107
1	10905157	253	90630
1	10953521	254	92008
1	11001008	255	88616
1	11049085	256	91319
1	11097471	257	91478
1	11144732	258	89093
1	11192907	259	91425
1	11240899	260	90206
1	11288341	261	90153
1	11337224	262	93704
1	11384053	263	86443
1	11432428	264	91743
1	11480255	265	90577
1	11528269	266	91796
1	11576460	267	90153
1	11624253	268	89888
1	11671990	269	90948
1	11719524	270	88086
1	11767080	271	89358
1	11815486	272	91955
1	11863050	273	89941
1	11911456	274	91955
1	11959616	275	90736
1	12007261	276	90683
1	12055185	277	89623
1	12103099	278	91107
1	12150579	279	89199
1	12198732	280	91955
1	12246397	281	89411
1	12294316	282	90100
1	12342558	283	91531
1	12390763	284	91425
1	12438541	285	89305
1	12486155	286	90418
1	12533717	287	89411
1	12581730	288	90736
1	12630185	289	91372
1	12677715	290	89729
1	12726004	291	91478
1	12773482	292	90153
1	12821814	293	91107
1	12869396	294	89093
1	12917377	295	90895
1	12965450	296	91478
1	13013197	297	89517
1	13061394	298	91213
1	13109093	299	89358
1	13156824	300	91319
1	13204589	301	90047
1	13252475	302	90789
1	13300762	303	90842
1	13347940	304	88616
1	13395902	305	90047
1	13444103	306	91372
1	13492069	307	91319
1	13539728	308	89623
1	13587590	309	91054
1	13635628	310	89729
1	13683477	311	91001
1	13730906	312	88616
1	13778977	313	90895
1	13826514	314	89358
1	13874878	315	91425
1	13921993	316	89093
1	13970054	317	90153
1	14018320	318	92008
1	14066236	319	90524
1	14113676	320	89093
1	14161876	321	90683
1	14209805	322	90948
1	14258292	323	91955
1	14305764	324	89888
1	14353952	325	90736
1	14401682	326	89676
1	14449251	327	89411
1	14496995	328	89782
1	14544724	329	90312
1	14592884	330	90524
1	14640553	331	90789
1	14688600	332	90471
1	14736047	333	88987
1	14784599	334	92432
1	14832037	335	89835
1	14879669	336	88934
1	14927916	337	92697
1	14975904	338	89411
1	15023483	339	89358
1	15071498	340	90630
1	15119132	341	89888
1	15167672	342	92909
1	15214875	343	88563
1	15263354	344	90683
1	15310704	345	89570
1	15358751	346	91054
1	15406716	347	91425
1	15454892	348	89888
1	15502774	349	91796
1	15550596	350	89411
1	15598441	351	89941
1	15646761	352	92114
1	15694526	353	89676
1	15742539	354	90736
1	15790088	355	89252
1	15838089	356	90842
1	15885448	357	89199
1	15933491	358	90789
1	15981888	359	91955
1	16029541	360	89570
1	16077151	361	89252
1	16125536	362	92644
1	16172833	363	87715
1	16220464	364	89994
1	16268693	365	90736
1	16316550	366	90683
1	16364612	367	90789
1	16412322	368	89570
1	16459910	369	89305
1	16508325	370	92220
1	16555603	371	88298
1	16603767	372	91849
1	16651361	373	89835
1	16699924	374	91266
1	16747359	375	90259
1	16795668	376	91213
1	16843346	377	89358
1	16891522	378	90524
1	16939463	379	90365
1	16987043	380	90153
1	17034810	381	91054
1	17082677	382	88828
1	17130708	383	90895
1	17178531	384	90524
1	17226243	385	89199
1	17274226	386	91107
1	17322097	387	90153
1	17369838	388	89411
1	17418290	389	90683
1	17465621	390	88934
1	17513874	391	92220
1	17561200	392	87556
1	17609189	393	90736
1	17657179	394	90789
1	17704891	395	90895
1	17752882	396	89411
1	17801227	397	91902
1	17848691	398	88987
1	17896719	399	90630
1	17944503	400	89835
1	17992350	401	90577
1	18040366	402	90524
1	18087884	403	90259
1	18136330	404	92061
1	18183780	405	89146
1	18231825	406	90577
1	18279496	407	89199
1	18327526	408	90789
1	18375345	409	90789
1	18422898	410	89093
1	18471427	411	92697
1	18518705	412	87715
1	18566925	413	92273
1	18614777	414	90206
1	18662721	415	90206
1	18710943	416	91160
1	18758618	417	90312
1	18806301	418	89782
1	18854092	419	90259
1	18902512	420	91531
1	18950440	421	89464
1	18997972	422	89835
1	19045646	423	88616
1	19093007	424	88934
1	19141289	425	92220
1	19189188	426	90736
1	19236791	427	89040
1	19284956	428	91690
1	19332886	429	89994
1	19380790	430	90206
1	19428691	431	91160
1	19476410	432	88404
1	19524622	433	91372
1	19572046	434	89358
1	19619888	435	90153
1	19668225	436	90895
1	19716126	437	90736
1	19764194	438	90895
1	19812262	439	90948
1	19860166	440	90842
1	19908281	441	89623
1	19956256	442	91425
1	20004346	443	90365
1	20051599	444	89411
1	20099347	445	89729
1	20147381	446	90418
1	20194780	447	88775
1	20243062	448	91213
1	20290889	449	90206
1	20338684	450	89464
1	20386930	451	91637
1	20434114	452	88722
1	20482351	453	90365
1	20530534	454	92061
1	20578872	455	90842
1	20626179	456	88669
1	20674274	457	91372
1	20722031	458	89464
1	20770010	459	91584
1	20817767	460	89305
1	20865407	461	89941
1	20913699	462	90683
1	20961208	463	89464
1	21008620	464	89941
1	21057145	465	91902
1	21104782	466	89517
1	21152906	467	90948
1	21200548	468	89570
1	21248630	469	91107
1	21296505	470	90206
1	21344627	471	91001
1	21392055	472	89358
1	21440662	473	92803
1	21487866	474	87874
1	21535973	475	90630
1	21583342	476	89464
1	21631640	477	91849
1	21679041	478	88987
1	21727493	479	90895
1	21775358	480	90630
1	21822627	481	88722
1	21871316	482	92697
1	21918427	483	88139
1	21966705	484	91584
1	22014108	485	88086
1	22061323	486	89093
1	22110371	487	92909
1	22157100	488	87715
1	22205470	489	90418
1	22253267	490	91425
1	22301407	491	90418
1	22349350	492	90630
1	22396966	493	89252
1	22444831	494	89305
1	22492933	495	91690
1	22540671	496	89941
1	22588814	497	91584
1	22636455	498	88563
1	22684710	499	92591
1	22732790	500	90259
1	22780185	501	88563
1	22828484	502	91266
1	22876571	503	91478
1	22924250	504	89994
1	22971522	505	88139
1	23020041	506	92167
1	23067841	507	89093
1	23115970	508	92379
1	23163811	509	90683
1	23211821	510	90206
1	23259945	511	91213
1	23307867	512	90312
1	23356078	513	90206
1	23403619	514	90471
1	23450989	515	89517
1	23498574	516	88881
1	23546861	517	90789
1	23595227	518	91743
1	23643013	519	90895
1	23691150	520	90789
1	23738790	521	88881
1	23786355	522	89464
1	23834895	523	91849
1	23882264	524	89782
1	23930553	525	90683
1	23978602	526	91160
1	24026099	527	89411
1	24074055	528	90418
1	24121634	529	89941
1	24169965	530	90630
1	24217747	531	91107
1	24266068	532	92008
1	24313647	533	89040
1	24361647	534	90365
1	24409621	535	90100
1	24457659	536	91531
1	24505211	537	89782
1	24553075	538	89729
1	24601925	539	92750
1	24649125	540	88616
1	24696739	541	90683
1	24744737	542	89623
1	24792518	543	90259
1	24840712	544	91054
1	24889018	545	90524
1	24936796	546	90630
1	24984878	547	90100
1	25032510	548	91319
1	25080789	549	89517
1	25128319	550	90312
1	25176386	551	91319
1	25224485	552	90365
1	25272242	553	90312
1	25320101	554	90100
1	25368013	555	89835
1	25416345	556	92220
1	25463596	557	88086
1	25511574	558	90683
1	25559781	559	91690
1	25607411	560	89358
1	25655345	561	89888
1	25703577	562	91213
1	25751075	563	89676
1	25799779	564	92114
1	25847305	565	89358
1	25894962	566	90206
1	25942878	567	90312
1	25991436	568	91213
1	26038851	569	89782
1	26086661	570	90153
1	26134370	571	89305
1	26182663	572	92485
1	26230228	573	88881
1	26278650	574	92114
1	26326317	575	88828
1	26373892	576	89517
1	26421776	577	90948
1	26469746	578	89570
1	26518061	579	92167
1	26566098	580	90312
1	26613718	581	89305
1	26661569	582	90047
1	26710117	583	92909
1	26757355	584	89411
1	26805462	585	90630
1	26853709	586	89835
1	26901727	587	91849
1	26949555	588	90312
1	26997951	589	91160
1	27045662	590	89093
1	27093459	591	90895
1	27141424	592	90418
1	27189412	593	91319
1	27237095	594	89835
1	27285515	595	91902
1	27333577	596	90524
1	27380871	597	89093
1	27428776	598	90471
1	27476557	599	89570
1	27524727	600	91160
1	27572633	601	90736
1	27620685	602	91054
1	27668256	603	88616
1	27716437	604	91372
1	27764415	605	91213
1	27812075	606	89199
1	27860019	607	90736
1	27907745	608	89835
1	27955929	609	91743
1	28004062	610	89358
1	28051364	611	89358
1	28099848	612	92220
1	28147350	613	89888
1	28195634	614	90895
1	28243560	615	90259
1	28291085	616	89199
1	28338965	617	90842
1	28386925	618	91319
1	28434756	619	90418
1	28482636	620	89994
1	28530580	621	90895
1	28578387	622	89040
1	28626340	623	90789
1	28674134	624	90365
1	28722198	625	91001
1	28770431	626	91319
1	28818175	627	89146
1	28865872	628	90100
1	28914096	629	91107
1	28961610	630	89093
1	29009984	631	90577
1	29057470	632	89835
1	29105514	633	91902
1	29153589	634	89835
1	29201153	635	89517
1	29249566	636	91531
1	29297315	637	90736
1	29345331	638	89941
1	29392823	639	90471
1	29440633	640	88934
1	29488657	641	89782
1	29536687	642	91054
1	29584882	643	91478
1	29631988	644	87874
1	29680140	645	90630
1	29728027	646	90312
1	29775984	647	91054
1	29824084	648	90418
1	29871828	649	91107
1	29919042	650	87927
1	29967589	651	91796
1	30015355	652	90524
1	30062918	653	89093
1	30110901	654	90895
1	30159284	655	92008
1	30206663	656	88616
1	30254805	657	90789
1	30302848	658	90948
1	30350386	659	88987
1	30398135	660	89835
1	30446260	661	91478
1	30494424	662	91637
1	30541909	663	88192
1	30589971	664	91213
1	30638220	665	91266
1	30686142	666	90789
1	30733885	667	90418
1	30782069	668	90895
1	30830114	669	88828
1	30877722	670	91054
1	30925631	671	90365
1	30973893	672	91690
1	31021807	673	89676
1	31069380	674	89517
1	31117373	675	91372
1	31165428	676	89782
1	31213311	677	90577
1	31261055	678	91213
1	31308988	679	88881
1	31356681	680	90683
1	31404929	681	90471
1	31452980	682	90577
1	31500326	683	89411
1	31548626	684	92008
1	31596135	685	88033
1	31643626	686	90365
1	31692090	687	90630
1	31739906	688	90842
1	31787768	689	89888
1	31835934	690	91266
1	31883702	691	90524
1	31931469	692	90206
1	31979226	693	88934
1	32026913	694	90365
1	32075185	695	91955
1	32123003	696	90153
1	32171354	697	90312
1	32218342	698	88351
1	32267010	699	92485
1	32314652	700	89623
1	32362671	701	91849
1	32410972	702	91054
1	32459072	703	90630
1	32506867	704	90948
1	32554941	705	90524
1	32603280	706	90948
1	32650705	707	88457
1	32698793	708	92061
1	32746860	709	90206
1	32794793	710	90206
1	32842485	711	90365
1	32890418	712	89517
1	32938258	713	90153
1	32986600	714	91955
1	33034333	715	89252
1	33081989	716	89517
1	33129701	717	90365
1	33178004	718	91584
1	33225490	719	89517
1	33273553	720	91160
1	33321750	721	90736
1	33369592	722	90736
1	33417894	723	90524
1	33465191	724	88722
1	33512991	725	90365
1	33561309	726	91001
1	33609154	727	91478
1	33657721	728	91160
1	33705197	729	89994
1	33752506	730	88669
1	33800635	731	90418
1	33848251	732	90524
1	33896216	733	89411
1	33944175	734	90577
1	33991865	735	90418
1	34040047	736	90630
1	34088129	737	91213
1	34136022	738	90153
1	34183972	739	90948
1	34231901	740	90206
1	34279756	741	90153
1	34327780	742	90471
1	34375604	743	90948
1	34423857	744	90365
1	34471222	745	89146
1	34519175	746	91425
1	34567251	747	89994
1	34614963	748	89941
1	34662989	749	91531
1	34711150	750	89994
1	34758817	751	90948
1	34806657	752	88722
1	34854290	753	90948
1	34902008	754	89570
1	34950059	755	90524
1	34998044	756	90842
1	35045771	757	90365
1	35093890	758	90471
1	35141238	759	89411
1	35189725	760	91319
1	35237543	761	89835
1	35284650	762	88351
1	35332538	763	89994
1	35380822	764	91319
1	35428348	765	89040
1	35475773	766	89252
1	35524296	767	92644
1	35571893	768	89517
1	35619816	769	89941
1	35668084	770	91425
1	35716288	771	90736
1	35763552	772	89305
1	35811381	773	89676
1	35859731	774	91372
1	35907674	775	90683
1	35954987	776	88616
1	36003204	777	89941
1	36050627	778	90100
1	36098911	779	90683
1	36146979	780	90895
1	36194847	781	90948
1	36242986	782	90153
1	36290771	783	91160
1	36338515	784	89782
1	36386571	785	89941
1	36434344	786	90630
1	36482010	787	89199
1	36529978	788	90789
1	36577933	789	90259
1	36625927	790	90259
1	36673314	791	89623
1	36721952	792	91743
1	36769474	793	89305
1	36817503	794	90630
1	36865483	795	90206
1	36912769	796	89517
1	36961251	797	92114
1	37008846	798	88510
1	37056701	799	90683
1	37104880	800	90577
1	37152822	801	90365
1	37200414	802	90047
1	37248915	803	91902
1	37296360	804	89252
1	37344428	805	91213
1	37392347	806	90471
1	37440517	807	92114
1	37488618	808	90736
1	37536149	809	88775
1	37584042	810	90365
1	37631885	811	91107
1	37679831	812	89358
1	37727404	813	88775
1	37775288	814	91107
1	37823136	815	90259
1	37871087	816	89623
1	37918882	817	91107
1	37966859	818	90418
1	38014488	819	89252
1	38062683	820	91796
1	38110585	821	90153
1	38158513	822	89729
1	38206381	823	90524
1	38254268	824	90100
1	38302151	825	91213
1	38349998	826	88828
1	38397689	827	90895
1	38445468	828	88722
1	38493578	829	92220
1	38541836	830	89252
1	38589021	831	88828
1	38637034	832	91266
1	38684672	833	89623
1	38733013	834	91584
1	38780450	835	88616
1	38828570	836	91054
1	38876626	837	90206
1	38924651	838	91637
1	38971973	839	88616
1	39019715	840	90259
1	39067946	841	91107
1	39115945	842	90100
1	39163697	843	90100
1	39211213	844	89252
1	39259013	845	90312
1	39307029	846	90206
1	39354812	847	90630
1	39403137	848	91319
1	39450408	849	88934
1	39498761	850	91054
1	39546330	851	90259
1	39594427	852	90153
1	39642127	853	88987
1	39689567	854	89994
1	39737632	855	89941
1	39785693	856	91531
1	39833301	857	88828
1	39881624	858	91319
1	39929466	859	90577
1	39977387	860	90630
1	40025071	861	89994
1	40072681	862	89252
1	40121252	863	92485
1	40168838	864	90153
1	40217219	865	91107
1	40264899	866	89411
1	40313047	867	91372
1	40361352	868	91637
1	40408740	869	88881
1	40456638	870	90471
1	40504678	871	91849
1	40552579	872	90630
1	40601104	873	90418
1	40648957	874	91160
1	40697229	875	91107
1	40744707	876	89252
1	40793118	877	91213
1	40841013	878	91054
1	40888572	879	88298
1	40936324	880	91637
1	40984463	881	91478
1	41032319	882	89464
1	41079788	883	88987
1	41128471	884	92167
1	41175693	885	88987
1	41223663	886	90789
1	41271936	887	91266
1	41319820	888	89888
1	41367405	889	90365
1	41415619	890	90153
1	41463569	891	90471
1	41511441	892	90418
1	41558860	893	89252
1	41607094	894	90683
1	41654832	895	90100
1	41702465	896	90100
1	41750213	897	89782
1	41798376	898	91372
1	41846223	899	90153
1	41894132	900	90153
1	41941779	901	90100
1	41990005	902	91425
1	42037787	903	89994
1	42086012	904	90312
1	42133588	905	90153
1	42181744	906	90524
1	42229400	907	90047
1	42277181	908	90153
1	42325380	909	92114
1	42373467	910	90365
1	42420910	911	89411
1	42468792	912	90365
1	42517012	913	91478
1	42564843	914	89888
1	42612064	915	90100
1	42660151	916	89358
1	42707726	917	89411
1	42755643	918	90100
1	42803292	919	90312
1	42851556	920	91266
1	42899763	921	90630
1	42947542	922	90683
1	42995637	923	90789
1	43043459	924	89782
1	43091601	925	91796
1	43139264	926	88987
1	43187344	927	91478
1	43235102	928	89782
1	43282826	929	90789
1	43330863	930	89994
1	43378843	931	90365
1	43426789	932	90365
1	43474561	933	91213
1	43522537	934	88987
1	43570403	935	90471
1	43618730	936	92644
1	43666160	937	87980
1	43714604	938	91796
1	43761823	939	89093
1	43810317	940	92061
1	43858070	941	90153
1	43905971	942	89835
1	43954536	943	92220
1	44002025	944	89093
1	44049654	945	90312
1	44097827	946	90153
1	44145626	947	91213
1	44193425	948	89411
1	44241563	949	91584
1	44289729	950	89888
1	44337356	951	89941
1	44385014	952	89093
1	44432996	953	90418
1	44481301	954	92485
1	44529296	955	91107
1	44577314	956	90471
1	44624691	957	88086
1	44672718	958	90842
1	44720483	959	90153
1	44768808	960	91266
1	44816524	961	90153
1	44864692	962	90524
1	44912457	963	90895
1	44960383	964	90153
1	45008005	965	89676
1	45056488	966	91690
1	45104234	967	89411
1	45152085	968	90630
1	45199836	969	89941
1	45248187	970	90789
1	45295810	971	91160
1	45343764	972	89305
1	45391259	973	88987
1	45439352	974	91849
1	45487306	975	89093
1	45534948	976	90630
1	45583071	977	90736
1	45631035	978	90683
1	45678554	979	88245
1	45726659	980	90842
1	45774373	981	90259
1	45822254	982	90789
1	45870200	983	89729
1	45918098	984	91213
1	45966155	985	90047
1	46013787	986	89623
1	46061704	987	90312
1	46109515	988	90630
1	46157397	989	90153
1	46205151	990	89888
1	46253249	991	90842
1	46301370	992	90418
1	46349139	993	90736
1	46397296	994	90471
1	46444677	995	89199
1	46493232	996	90630
1	46540498	997	89941
1	46588007	998	89146
1	46636279	999	91425
1	46683820	1000	89199
1	46731192	1001	88881
1	46779594	1002	91372
1	46826635	1003	87768
1	46874682	1004	90471
1	46923102	1005	92432
1	46970563	1006	88987
1	47018840	1007	91796
1	47066398	1008	89358
1	47114757	1009	92008
1	47162601	1010	89676
1	47210553	1011	90047
1	47258160	1012	89835
1	47306082	1013	89888
1	47353895	1014	90630
1	47401533	1015	89358
1	47449798	1016	91902
1	47497552	1017	90259
1	47545657	1018	90100
1	47593904	1019	91849
1	47641631	1020	89464
1	47688952	1021	89146
1	47737391	1022	92061
1	47785010	1023	89623
1	47832569	1024	88616
1	47880845	1025	92114
1	47928887	1026	90047
1	47976401	1027	89676
1	48024249	1028	89676
1	48071959	1029	89676
1	48119827	1030	90789
1	48167437	1031	89623
1	48215720	1032	90736
1	48263781	1033	90471
1	48311537	1034	90736
1	48358904	1035	87980
1	48407477	1036	91902
1	48455342	1037	90736
1	48502985	1038	88934
1	48550967	1039	91160
1	48598426	1040	87768
1	48646259	1041	91478
1	48694550	1042	90524
1	48741869	1043	89358
1	48790112	1044	91637
1	48837570	1045	88404
1	48885738	1046	91955
1	48933412	1047	89252
1	48981485	1048	90524
1	49029666	1049	91531
1	49077497	1050	89517
1	49125237	1051	89888
1	49172965	1052	90153
1	49220819	1053	90524
1	49268918	1054	90842
1	49316771	1055	89358
1	49364596	1056	90683
1	49412949	1057	91478
1	49460945	1058	90577
1	49508630	1059	89040
1	49556472	1060	90259
1	49604493	1061	90577
1	49651860	1062	88987
1	49700096	1063	90683
1	49747510	1064	89570
1	49795861	1065	91637
1	49843477	1066	90153
1	49891440	1067	90100
1	49939526	1068	90524
1	49987223	1069	89358
1	50034944	1070	90471
1	50083202	1071	91425
1	50130788	1072	89517
1	50178379	1073	89252
1	50226331	1074	90312
1	50274491	1075	91531
1	50322473	1076	89570
1	50370198	1077	90630
1	50418610	1078	91266
1	50466068	1079	89040
1	50513659	1080	88987
1	50561384	1081	90312
1	50609909	1082	92167
1	50657474	1083	88881
1	50705522	1084	90789
1	50753557	1085	90577
1	50801576	1086	91637
1	50848948	1087	88033
1	50896903	1088	89305
1	50944861	1089	91584
1	50992375	1090	88828
1	51040556	1091	91743
1	51088374	1092	89570
1	51135821	1093	88987
1	51184030	1094	90259
1	51231348	1095	89093
1	51279567	1096	91372
1	51327412	1097	90100
1	51375152	1098	89411
1	51422846	1099	89517
1	51471224	1100	91902
1	51519073	1101	89835
1	51566958	1102	90471
1	51614870	1103	90418
1	51663160	1104	90948
1	51710763	1105	89941
1	51758503	1106	90100
1	51806698	1107	89782
1	51854571	1108	90948
1	51902415	1109	90418
1	51950418	1110	90153
1	51998579	1111	91001
1	52045911	1112	89146
1	52094295	1113	91584
1	52141956	1114	89941
1	52190233	1115	91107
1	52237857	1116	88775
1	52285617	1117	90206
1	52333706	1118	90365
1	52381054	1119	89464
1	52429335	1120	90948
1	52477164	1121	90577
1	52525043	1122	89623
1	52572721	1123	90789
1	52620864	1124	90153
1	52668809	1125	90630
1	52716538	1126	89941
1	52764803	1127	90471
1	52812416	1128	89199
1	52860693	1129	91743
1	52908378	1130	90259
1	52955840	1131	87503
1	53004511	1132	92538
1	53051598	1133	89676
1	53100029	1134	91160
1	53147465	1135	89888
1	53194785	1136	88457
1	53243226	1137	91584
1	53290928	1138	89941
1	53338749	1139	90259
1	53386888	1140	91001
1	53434541	1141	89888
1	53482489	1142	91213
1	53530788	1143	90524
1	53578198	1144	89729
1	53626466	1145	90471
1	53674159	1146	89358
1	53722342	1147	92485
1	53769835	1148	87662
1	53818130	1149	92220
1	53865817	1150	89676
1	53914256	1151	91849
1	53961697	1152	89093
1	54009740	1153	90206
1	54057484	1154	90047
1	54105383	1155	90471
1	54153674	1156	91531
1	54201763	1157	90365
1	54249188	1158	89782
1	54297464	1159	90736
1	54344863	1160	89676
1	54393006	1161	90736
1	54440590	1162	89570
1	54488070	1163	89623
1	54536529	1164	91849
1	54584238	1165	88987
1	54632215	1166	90736
1	54679853	1167	90047
1	54728100	1168	91372
1	54775962	1169	89623
1	54824117	1170	90100
1	54871590	1171	90524
1	54919507	1172	90259
1	54967059	1173	89358
1	55015056	1174	90153
1	55062895	1175	90365
1	55111188	1176	91372
1	55158743	1177	89464
1	55206147	1178	88616
1	55254402	1179	91478
1	55301929	1180	89305
1	55350338	1181	91531
1	55397519	1182	88616
1	55445528	1183	90524
1	55493615	1184	90206
1	55542120	1185	92167
1	55589303	1186	88510
1	55637584	1187	91478
1	55685262	1188	89729
1	55733144	1189	89729
1	55780571	1190	90312
1	55828696	1191	90948
1	55876357	1192	89517
1	55924993	1193	91955
1	55972593	1194	90153
1	56020295	1195	89411
1	56068413	1196	91160
1	56116064	1197	89570
1	56164279	1198	91160
1	56212005	1199	89411
1	56258879	1200	87927
1	56307567	1201	91743
1	56355304	1202	90471
1	56402993	1203	89040
1	56451361	1204	92856
1	56498427	1205	87185
1	56546611	1206	91213
1	56594654	1207	90577
1	56642447	1208	90312
1	56690361	1209	90524
1	56738198	1210	90365
1	56785802	1211	89093
1	56833851	1212	91001
1	56881793	1213	90736
1	56930016	1214	91054
1	56977472	1215	88616
1	57025467	1216	90577
1	57073621	1217	91584
1	57121117	1218	88934
1	57169356	1219	91425
1	57217094	1220	89941
1	57265227	1221	90365
1	57312514	1222	89464
1	57360775	1223	90047
1	57408363	1224	89305
1	57456643	1225	92697
1	57504304	1226	89623
1	57552173	1227	89782
1	57600487	1228	91319
1	57648049	1229	89305
1	57695813	1230	90736
1	57744157	1231	90895
1	57792055	1232	90683
1	57839889	1233	89888
1	57887610	1234	90100
1	57935281	1235	89941
1	57983307	1236	90789
1	58031297	1237	90842
1	58078907	1238	89411
1	58126675	1239	89835
1	58174967	1240	90842
1	58223011	1241	90312
1	58270909	1242	90895
1	58317969	1243	87874
1	58366552	1244	91849
1	58414516	1245	91160
1	58462530	1246	90736
1	58509992	1247	90100
1	58558241	1248	90047
1	58606343	1249	91160
1	58654071	1250	90312
1	58701526	1251	89199
1	58749715	1252	90789
1	58797817	1253	91478
1	58845694	1254	89994
1	58893263	1255	89146
1	58941114	1256	90206
1	58988858	1257	90789
1	59036667	1258	89676
1	59084692	1259	90577
1	59132844	1260	91266
1	59180569	1261	90100
1	59228862	1262	90259
1	59276163	1263	89464
1	59323971	1264	89729
1	59371902	1265	90418
1	59419928	1266	90736
1	59467459	1267	89517
1	59515313	1268	90047
1	59562692	1269	89411
1	59610770	1270	90418
1	59658269	1271	89623
1	59706846	1272	91584
1	59754319	1273	89517
1	59802195	1274	89305
1	59850530	1275	91796
1	59897820	1276	87715
1	59946513	1277	93333
1	59993596	1278	87715
1	60041732	1279	90418
1	60089606	1280	90100
1	60137868	1281	91531
1	60185813	1282	90365
1	60233727	1283	90312
1	60281498	1284	90206
1	60328927	1285	88086
1	60376797	1286	91637
1	60425057	1287	90683
1	60472748	1288	90524
1	60520764	1289	89358
1	60568275	1290	91160
1	60616526	1291	90418
1	60664742	1292	91107
1	60712591	1293	89729
1	60760325	1294	89835
1	60808269	1295	90683
1	60855918	1296	90047
1	60904121	1297	91319
1	60952199	1298	89994
1	60999345	1299	88722
1	61047001	1300	89040
1	61095264	1301	92114
1	61143303	1302	90259
1	61190951	1303	89517
1	61239130	1304	90842
1	61287193	1305	91478
1	61334374	1306	88351
1	61382852	1307	91584
1	61430207	1308	89888
1	61478889	1309	91266
1	61526860	1310	91690
1	61574470	1311	88563
1	61622777	1312	92114
1	61670474	1313	89093
1	61718383	1314	90842
1	61766383	1315	90630
1	61814156	1316	90524
1	61862083	1317	90524
1	61910057	1318	89623
1	61957885	1319	91160
1	62005862	1320	90842
1	62053489	1321	89093
1	62102032	1322	92379
1	62149856	1323	89464
1	62197886	1324	91054
1	62245256	1325	88351
1	62293829	1326	92591
1	62341574	1327	89729
1	62389331	1328	89623
1	62437217	1329	91213
1	62485163	1330	89623
1	62533461	1331	91849
1	62580960	1332	89040
1	62629255	1333	91266
1	62677242	1334	89676
1	62725123	1335	90365
1	62772839	1336	90153
1	62820542	1337	89729