version 2
run QLearnCC-8-20100707-12:14:32-5028
attr alpha 0.1
attr configname QLearnCC
attr datetime 20100707-12:14:32
attr epsilon 0.01
attr experiment QLearnCC
attr inifile D:/Developement/Oversim2/multic/simulations/omnetpp.ini
attr iterationvars "$alpha=0.1, $lamda=1.0, $reinfup=0.1, $epsilon=0.01"
attr iterationvars2 "$alpha=0.1, $lamda=1.0, $reinfup=0.1, $epsilon=0.01, $repetition=0"
attr lamda 1.0
attr measurement "$alpha=0.1, $lamda=1.0, $reinfup=0.1, $epsilon=0.01"
attr network oversim.underlay.simpleunderlay.SimpleUnderlayNetwork
attr processid 5028
attr reinfup 0.1
attr repetition 0
attr replication #0
attr resultdir results
attr runnumber 8
attr seedset 8

vector 1  SimpleUnderlayNetwork.globalObserver.globalStatistics  incoming_bytes  ETV
vector 2  SimpleUnderlayNetwork.globalObserver.globalStatistics  drops  ETV
vector 3  SimpleUnderlayNetwork.globalObserver.globalStatistics  9rateOf1To0  ETV
vector 4  SimpleUnderlayNetwork.globalObserver.globalStatistics  max9RateOf1To0  ETV
vector 5  SimpleUnderlayNetwork.globalObserver.globalStatistics  9rateOf1To1  ETV
vector 6  SimpleUnderlayNetwork.globalObserver.globalStatistics  max9RateOf1To1  ETV
vector 7  SimpleUnderlayNetwork.globalObserver.globalStatistics  9rateOf1To2  ETV
vector 8  SimpleUnderlayNetwork.globalObserver.globalStatistics  max9RateOf1To2  ETV
vector 9  SimpleUnderlayNetwork.globalObserver.globalStatistics  9rateOf1To3  ETV
vector 10  SimpleUnderlayNetwork.globalObserver.globalStatistics  max9RateOf1To3  ETV
vector 11  SimpleUnderlayNetwork.globalObserver.globalStatistics  9rateOf1To4  ETV
vector 12  SimpleUnderlayNetwork.globalObserver.globalStatistics  max9RateOf1To4  ETV
vector 13  SimpleUnderlayNetwork.globalObserver.globalStatistics  9rateOf1To5  ETV
vector 14  SimpleUnderlayNetwork.globalObserver.globalStatistics  max9RateOf1To5  ETV
vector 15  SimpleUnderlayNetwork.globalObserver.globalStatistics  9rateOf1To6  ETV
vector 16  SimpleUnderlayNetwork.globalObserver.globalStatistics  max9RateOf1To6  ETV
vector 17  SimpleUnderlayNetwork.globalObserver.globalStatistics  9rateOf1To7  ETV
vector 18  SimpleUnderlayNetwork.globalObserver.globalStatistics  max9RateOf1To7  ETV
vector 19  SimpleUnderlayNetwork.globalObserver.globalStatistics  9rateOf1To8  ETV
vector 20  SimpleUnderlayNetwork.globalObserver.globalStatistics  max9RateOf1To8  ETV
vector 21  SimpleUnderlayNetwork.globalObserver.globalStatistics  9rateOf1To9  ETV
vector 22  SimpleUnderlayNetwork.globalObserver.globalStatistics  max9RateOf1To9  ETV
vector 23  SimpleUnderlayNetwork.globalObserver.globalStatistics  1rate  ETV
vector 24  SimpleUnderlayNetwork.globalObserver.globalStatistics  max2Rate  ETV
vector 25  SimpleUnderlayNetwork.globalObserver.globalStatistics  "GlobalNodeList: Number of nodes"  ETV
vector 26  SimpleUnderlayNetwork.globalObserver.globalStatistics  "GlobalNodeList: Number of bootstrapped malicious nodes"  ETV
1	4458432	121	91054
1	4505938	122	91425
1	4553819	123	92803
1	4601592	124	92114
1	4649030	125	91107
1	4697074	126	93492
1	4744934	127	91955
1	4793011	128	92644
1	4840601	129	91425
1	4888184	130	91637
1	4935873	131	91849
1	4983963	132	92962
1	5031569	133	92114
1	5079486	134	91372
1	5127003	135	92061
1	5174681	136	92061
1	5222302	137	92114
1	5270000	138	91001
1	5317801	139	92962
1	5365227	140	90895
1	5412882	141	91849
1	5460301	142	91478
1	5508216	143	91849
1	5556003	144	92538
1	5603619	145	92432
1	5651329	146	91425
1	5698614	147	90418
1	5746268	148	93333
1	5794081	149	91478
1	5841791	150	91319
1	5889803	151	92697
1	5937564	152	93651
1	5985078	153	89994
1	6032863	154	92220
1	6080255	155	91849
1	6127981	156	91319
1	6175572	157	92697
1	6223707	158	92803
1	6271468	159	92220
1	6319120	160	91637
1	6366652	161	91637
1	6414245	162	92114
1	6462707	163	93757
1	6510107	164	92008
1	6557848	165	91743
1	6605538	166	91690
1	6653525	167	93068
1	6701103	168	91637
1	6749058	169	92962
1	6796493	170	91054
1	6844650	171	93704
1	6891895	172	90206
1	6939772	173	92750
1	6987505	174	91796
1	7035391	175	92644
1	7083010	176	92379
1	7131024	177	92220
1	7178787	178	92273
1	7226230	179	91690
1	7273808	180	90524
1	7321328	181	93068
1	7368881	182	90153
1	7416453	183	92485
1	7464362	184	91849
1	7511913	185	92538
1	7559827	186	91902
1	7607045	187	91425
1	7654752	188	92644
1	7702356	189	91266
1	7750281	190	92326
1	7797897	191	91849
1	7845374	192	92061
1	7892814	193	91637
1	7940603	194	91955
1	7988443	195	92220
1	8036105	196	91319
1	8083778	197	93492
1	8131327	198	90471
1	8178920	199	92591
1	8226172	200	89941
1	8273947	201	93598
1	8321923	202	91743
1	8369138	203	91266
1	8416701	204	91849
1	8464206	205	91054
1	8511874	206	92750
1	8559848	207	92167
1	8607144	208	91319
1	8654781	209	91478
1	8702807	210	92697
1	8750266	211	91584
1	8798112	212	92750
1	8845570	213	90895
1	8893254	214	92008
1	8940668	215	91902
1	8988372	216	92379
1	9035872	217	90683
1	9083314	218	92644
1	9130424	219	89411
1	9178368	220	93863
1	9225675	221	90842
1	9273335	222	92750
1	9320476	223	89199
1	9368524	224	94181
1	9415627	225	89835
1	9463428	226	92538
1	9510849	227	91478
1	9558452	228	91372
1	9605908	229	92114
1	9653542	230	91584
1	9700936	231	91160
1	9748522	232	91743
1	9796289	233	91319
1	9843760	234	91902
1	9891650	235	92220
1	9939206	236	90789
1	9986955	237	92909
1	10034634	238	92485
1	10082957	239	93704
1	10129841	240	89782
1	10178201	241	93651
1	10225753	242	92432
1	10273276	243	90789
1	10320907	244	91902
1	10369005	245	94181
1	10416285	246	89199
1	10464160	247	93015
1	10511355	248	91266
1	10559289	249	92856
1	10606701	250	91637
1	10654638	251	92220
1	10702678	252	92697
1	10750338	253	92114
1	10798256	254	92432
1	10845505	255	91107
1	10893075	256	91849
1	10941027	257	93121
1	10988479	258	91054
1	11036221	259	92114
1	11083974	260	91743
1	11131782	261	92644
1	11179359	262	92061
1	11227234	263	91213
1	11274768	264	92485
1	11322125	265	91001
1	11369893	266	92644
1	11417460	267	91796
1	11465182	268	91690
1	11512926	269	92326
1	11560403	270	91690
1	11608207	271	92008
1	11655883	272	91637
1	11703826	273	93651
1	11751577	274	92909
1	11799459	275	91902
1	11846720	276	90630
1	11894198	277	91478
1	11942235	278	92432
1	11989728	279	92432
1	12037057	280	90842
1	12084598	281	92220
1	12132660	282	93121
1	12180122	283	90524
1	12227748	284	92114
1	12275468	285	91955
1	12323199	286	92432
1	12371185	287	93492
1	12418736	288	91266
1	12466238	289	91107
1	12513695	290	92220
1	12561007	291	90895
1	12608979	292	93174
1	12656568	293	90789
1	12704049	294	92167
1	12751195	295	90418
1	12798885	296	92379
1	12845877	297	90206
1	12893864	298	93121
1	12941597	299	92326
1	12989321	300	91213
1	13037230	301	93969
1	13084549	302	90047
1	13132270	303	92644
1	13179756	304	91107
1	13227631	305	92962
1	13275060	306	91213
1	13322908	307	92697
1	13370032	308	90683
1	13417721	309	92379
1	13465361	310	90895
1	13513109	311	92432
1	13560702	312	92114
1	13608698	313	93068
1	13656453	314	92167
1	13703741	315	91266
1	13751530	316	92697
1	13798911	317	90683
1	13846634	318	92167
1	13894392	319	92273
1	13941935	320	92061
1	13989274	321	91425
1	14037090	322	91319
1	14084788	323	93121
1	14132310	324	91213
1	14180132	325	92803
1	14227665	326	91425
1	14275188	327	92220
1	14322587	328	91372
1	14370363	329	92750
1	14417706	330	90471
1	14465488	331	92591
1	14513242	332	92167
1	14560888	333	92485
1	14608373	334	91425
1	14655969	335	91531
1	14703496	336	91849
1	14751076	337	91054
1	14798784	338	93227
1	14846294	339	91637
1	14894103	340	91796
1	14941382	341	91319
1	14989447	342	93386
1	15036766	343	91372
1	15084300	344	91796
1	15132093	345	91955
1	15179497	346	91054
1	15227025	347	92485
1	15274525	348	91001
1	15322730	349	94340
1	15369887	350	89517
1	15417764	351	93598
1	15465658	352	92220
1	15513024	353	91743
1	15560700	354	91955
1	15608228	355	91531
1	15656158	356	92803
1	15703400	357	91213
1	15751502	358	92644
1	15799114	359	91902
1	15846572	360	92008
1	15894375	361	91849
1	15942019	362	92220
1	15989511	363	91849
1	16036757	364	90312
1	16084600	365	92750
1	16132158	366	91584
1	16179942	367	93068
1	16227493	368	91054
1	16274840	369	91531
1	16322588	370	92485
1	16370338	371	92538
1	16418004	372	91319
1	16465587	373	92591
1	16513494	374	91743
1	16560613	375	90842
1	16608543	376	93333
1	16656220	377	92273
1	16703644	378	91425
1	16751496	379	91743
1	16799071	380	92591
1	16846658	381	92167
1	16894618	382	92273
1	16942459	383	92114
1	16990279	384	92750
1	17037675	385	91584
1	17085414	386	92220
1	17133107	387	92697
1	17180884	388	92485
1	17228331	389	90471
1	17276377	390	93227
1	17323938	391	91478
1	17371383	392	91478
1	17419595	393	93333
1	17466700	394	90789
1	17514159	395	92061
1	17561908	396	91796
1	17609277	397	90418
1	17657016	398	92909
1	17704510	399	91425
1	17752080	400	92326
1	17799683	401	91584
1	17847618	402	92803
1	17895307	403	92379
1	17942894	404	91690
1	17990962	405	92962
1	18038244	406	91478
1	18086035	407	92644
1	18134013	408	92909
1	18181612	409	91266
1	18229499	410	92114
1	18277365	411	92856
1	18324967	412	91160
1	18372246	413	91796
1	18420336	414	93492
1	18467438	415	90418
1	18515053	416	92326
1	18562510	417	91001
1	18610123	418	91902
1	18657852	419	91584
1	18705682	420	93015
1	18753290	421	91319
1	18800836	422	92538
1	18848503	423	91531
1	18895712	424	90736
1	18943379	425	92803
1	18991151	426	90471
1	19039308	427	93810
1	19086785	428	92061
1	19133965	429	90630
1	19181290	430	91425
1	19229096	431	92008
1	19276807	432	92697
1	19324152	433	90577
1	19372202	434	93386
1	19419920	435	91425
1	19467522	436	91955
1	19514653	437	90471
1	19562552	438	93651
1	19610448	439	91743
1	19657998	440	91796
1	19706077	441	92538
1	19753760	442	92008
1	19801348	443	91849
1	19849172	444	92538
1	19896482	445	92008
1	19943820	446	90736
1	19991405	447	91372
1	20038894	448	92485
1	20086815	449	92273
1	20134623	450	93227
1	20182266	451	91637
1	20230055	452	92750
1	20277331	453	90895
1	20324728	454	91425
1	20372183	455	90948
1	20420069	456	93015
1	20467841	457	92273
1	20515098	458	90259
1	20562844	459	92697
1	20610351	460	92167
1	20658040	461	91849
1	20705741	462	92538
1	20752957	463	90153
1	20800967	464	93227
1	20848447	465	91213
1	20896304	466	92856
1	20943892	467	92220
1	20991064	468	90895
1	21038781	469	92008
1	21086571	470	92326
1	21133959	471	91531
1	21181860	472	91690
1	21229480	473	92803
1	21277051	474	91372
1	21324232	475	91478
1	21371913	476	91690
1	21419359	477	91637
1	21467280	478	92750
1	21514677	479	91902
1	21562259	480	91266
1	21609964	481	92591
1	21657835	482	92485
1	21705450	483	91955
1	21752847	484	91372
1	21800597	485	92220
1	21847880	486	91531
1	21895423	487	91372
1	21942796	488	91849
1	21990997	489	92379
1	22037906	490	90471
1	22085192	491	91160
1	22132700	492	91637
1	22180380	493	92061
1	22227642	494	91478
1	22275050	495	90524
1	22322782	496	93174
1	22370176	497	90100
1	22417815	498	93015
1	22465872	499	92485
1	22513249	500	92220
1	22560901	501	92008
1	22608323	502	91001
1	22656109	503	92220
1	22703648	504	92220
1	22751011	505	91584
1	22798358	506	90524
1	22846048	507	92538
1	22893725	508	91584
1	22940912	509	91001
1	22988652	510	92803
1	23036529	511	92167
1	23084071	512	91743
1	23131721	513	92750
1	23179219	514	90895
1	23226131	515	90471
1	23273984	516	93015
1	23321782	517	92697
1	23369229	518	91001
1	23417229	519	92008
1	23464345	520	91107
1	23511790	521	91690
1	23558876	522	90312
1	23606761	523	92538
1	23654216	524	91849
1	23702064	525	92697
1	23749079	526	90471
1	23797007	527	92856
1	23844909	528	92273
1	23892354	529	92220
1	23939780	530	91213
1	23987302	531	91637
1	24034628	532	91001
1	24082497	533	91955
1	24129778	534	91372
1	24177684	535	92697
1	24225287	536	92167
1	24272873	537	91160
1	24320809	538	93068
1	24368269	539	92008
1	24415883	540	92167
1	24463724	541	91902
1	24511421	542	91743
1	24558496	543	90842
1	24606099	544	91955
1	24653327	545	91319
1	24701223	546	93280
1	24748730	547	89994
1	24796085	548	92803
1	24843804	549	91902
1	24891405	550	91478
1	24938794	551	91478
1	24986618	552	92273
1	25034012	553	91955
1	25081446	554	91213
1	25129131	555	92485
1	25176992	556	92220
1	25224222	557	90577
1	25271673	558	92326
1	25319603	559	92432
1	25367179	560	91425
1	25414678	561	91955
1	25462303	562	92167
1	25509972	563	91319
1	25557771	564	93280
1	25605237	565	90577
1	25653001	566	93386
1	25700333	567	91107
1	25747982	568	91796
1	25795567	569	92379
1	25843128	570	91584
1	25891049	571	92644
1	25938842	572	92220
1	25986590	573	93015
1	26034097	574	91690
1	26081646	575	91266
1	26129563	576	92538
1	26177036	577	92273
1	26224543	578	91213
1	26271909	579	91107
1	26319210	580	91955
1	26367126	581	92750
1	26414954	582	91319
1	26462220	583	91637
1	26509983	584	92432
1	26557579	585	92326
1	26605227	586	91690
1	26652743	587	91902
1	26700488	588	91796
1	26748019	589	91266
1	26795368	590	92273
1	26843034	591	92432
1	26890813	592	91796
1	26938456	593	91160
1	26985723	594	92485
1	27033295	595	91531
1	27081008	596	91266
1	27128403	597	92379
1	27175806	598	90365
1	27223406	599	91478
1	27271281	600	93333
1	27318613	601	91160
1	27366706	602	93386
1	27414289	603	91478
1	27462155	604	92485
1	27509530	605	90153
1	27556772	606	92167
1	27603970	607	90471
1	27651650	608	91902
1	27699573	609	93492
1	27747079	610	91160
1	27794773	611	91584
1	27842516	612	92909
1	27889905	613	91637
1	27937766	614	91955
1	27985066	615	91425
1	28032720	616	91690
1	28080529	617	92061
1	28127895	618	92061
1	28175925	619	92538
1	28223714	620	92485
1	28270949	621	91160
1	28318438	622	91054
1	28366160	623	93121
1	28413391	624	90312
1	28460888	625	92061
1	28508930	626	92485
1	28556350	627	92114
1	28603729	628	91425
1	28651561	629	92432
1	28699552	630	92909
1	28746759	631	90842
1	28794218	632	91743
1	28841842	633	92538
1	28889265	634	90948
1	28936543	635	91372
1	28984448	636	92114
1	29031822	637	91637
1	29079533	638	92379
1	29127428	639	92909
1	29175110	640	91531
1	29222363	641	90789
1	29270243	642	92644
1	29317221	643	89623
1	29364774	644	93174
1	29412445	645	92008
1	29460211	646	91054
1	29507194	647	91584
1	29554860	648	91425
1	29602331	649	91637
1	29650154	650	92962
1	29697641	651	91001
1	29745025	652	91213
1	29792260	653	91425
1	29840296	654	91849
1	29887423	655	91690
1	29935094	656	92379
1	29982858	657	92114
1	30030707	658	92750
1	30078024	659	91107
1	30125767	660	92962
1	30172778	661	89570
1	30220944	662	93121
1	30268618	663	92485
1	30315875	664	91213
1	30363338	665	91637
1	30410412	666	91531
1	30458340	667	91955
1	30505717	668	91849
1	30553695	669	92962
1	30601047	670	90365
1	30648818	671	92803
1	30696442	672	91425
1	30743885	673	92061
1	30791629	674	92697
1	30839134	675	91107
1	30886972	676	93174
1	30934974	677	92750
1	30982556	678	91637
1	31029869	679	90789
1	31077761	680	93174
1	31125269	681	92220
1	31173282	682	92114
1	31220711	683	91319
1	31268360	684	92962
1	31316010	685	92008
1	31364115	686	92697
1	31411405	687	92167
1	31459265	688	91531
1	31506320	689	91796
1	31554517	690	92962
1	31602167	691	91796
1	31649981	692	92326
1	31697118	693	91319
1	31744628	694	91107
1	31792167	695	91902
1	31839323	696	90789
1	31887144	697	93015
1	31934396	698	91054
1	31982082	699	91160
1	32029868	700	93174
1	32076920	701	89676
1	32124715	702	94022
1	32172381	703	90683
1	32220122	704	92697
1	32267743	705	92167
1	32315373	706	90736
1	32363130	707	92273
1	32410590	708	92485
1	32458191	709	92114
1	32505788	710	91319
1	32553062	711	91001
1	32600925	712	93492
1	32648390	713	91107
1	32695879	714	91796
1	32743177	715	91107
1	32791267	716	92909
1	32838290	717	90895
1	32886116	718	91425
1	32933534	719	91531
1	32981547	720	92591
1	33029248	721	91955
1	33076615	722	91902
1	33124049	723	91796
1	33171619	724	91425
1	33219031	725	91690
1	33266691	726	91478
1	33314411	727	92750
1	33361698	728	90948
1	33409369	729	91796
1	33456905	730	92008
1	33504669	731	92962
1	33552122	732	91054
1	33599775	733	92432
1	33647490	734	90895
1	33694891	735	91690
1	33742765	736	92326
1	33790451	737	91743
1	33837831	738	92909
1	33885063	739	89623
1	33932283	740	91319
1	33980030	741	92326
1	34027941	742	92538
1	34075482	743	92167
1	34122620	744	89411
1	34170552	745	93598
1	34217920	746	90153
1	34265940	747	94870
1	34312845	748	88669
1	34360262	749	91902
1	34407432	750	90365
1	34455295	751	92803
1	34502888	752	91637
1	34550576	753	92750
1	34598734	754	92803
1	34645798	755	90365
1	34693033	756	90471
1	34740836	757	92962
1	34788432	758	92114
1	34835876	759	90789
1	34883740	760	92962
1	34931245	761	91531
1	34978793	762	92697
1	35026471	763	91319
1	35074087	764	91849
1	35121132	765	90259
1	35168732	766	92485
1	35216342	767	91319
1	35264395	768	93333
1	35311656	769	90895
1	35359275	770	91372
1	35407267	771	94128
1	35454353	772	90365
1	35502278	773	92273
1	35549492	774	91425
1	35597445	775	92326
1	35644866	776	91955
1	35692484	777	92220
1	35740183	778	90736
1	35787261	779	92061
1	35835230	780	91902
1	35883139	781	94022
1	35930696	782	90418
1	35978195	783	91902
1	36025524	784	91690
1	36073418	785	91902
1	36120877	786	92697
1	36168223	787	91584
1	36215675	788	90895
1	36263364	789	92856
1	36310886	790	91001
1	36358934	791	93545
1	36406214	792	90895
1	36453779	793	91478
1	36501488	794	93068
1	36548943	795	90948
1	36596446	796	92061
1	36643631	797	90789
1	36691329	798	92591
1	36738726	799	91319
1	36786463	800	91425
1	36834241	801	92220
1	36881877	802	92167
1	36929401	803	92273
1	36976731	804	90524
1	37024315	805	92432
1	37071933	806	91637
1	37119595	807	92803
1	37167189	808	91372
1	37215256	809	93068
1	37262137	810	89676
1	37309686	811	92697
1	37357501	812	91849
1	37404972	813	91478
1	37452892	814	92803
1	37500112	815	91478
1	37547530	816	90736
1	37595126	817	92379
1	37642725	818	92061
1	37690520	819	91849
1	37737724	820	91054
1	37785020	821	91531
1	37832917	822	93015
1	37880353	823	91160
1	37927906	824	92273
1	37975301	825	91372
1	38022811	826	91213
1	38070336	827	92697
1	38118003	828	91001
1	38165760	829	92962
1	38213064	830	90842
1	38261124	831	93757
1	38308341	832	90471
1	38355740	833	91796
1	38402960	834	90100
1	38451158	835	93863
1	38498298	836	90683
1	38545439	837	91425
1	38593102	838	92379
1	38640870	839	91054
1	38688536	840	93227
1	38735928	841	91478
1	38783589	842	91902
1	38831293	843	92803
1	38878939	844	91001
1	38926303	845	91425
1	38973883	846	92273
1	39021686	847	91531
1	39068526	848	90259
1	39116413	849	93015
1	39164414	850	93280
1	39211839	851	91849
1	39259470	852	91743
1	39307259	853	92326
1	39355045	854	92167
1	39402722	855	92114
1	39450174	856	91690
1	39497775	857	91531
1	39545426	858	91955
1	39592420	859	91213
1	39639984	860	91637
1	39687795	861	92273
1	39735242	862	91266
1	39783119	863	92803
1	39830708	864	92008
1	39878175	865	91054
1	39925829	866	92432
1	39973146	867	91213
1	40020825	868	92326
1	40068513	869	91584
1	40115879	870	91054
1	40163650	871	92326
1	40210961	872	91796
1	40258189	873	91001
1	40306129	874	92485
1	40353103	875	90206
1	40400951	876	92591
1	40448656	877	92538
1	40496117	878	91160
1	40543524	879	90948
1	40590906	880	92220
1	40638839	881	92379
1	40686264	882	91584
1	40734318	883	93068
1	40781011	884	89623
1	40829205	885	92909
1	40876505	886	91902
1	40924073	887	91955
1	40972023	888	92273
1	41019125	889	91796
1	41066744	890	91478
1	41114735	891	92485
1	41161961	892	91054
1	41209617	893	92856
1	41257127	894	90895
1	41304928	895	92538
1	41352366	896	92008
1	41400668	897	93121
1	41448022	898	91160
1	41495701	899	92220
1	41543036	900	90365
1	41590917	901	93227
1	41638683	902	92485
1	41686179	903	91584
1	41733660	904	91213
1	41781283	905	92061
1	41828924	906	92326
1	41876850	907	92962
1	41923709	908	90047
1	41971623	909	92326
1	42019095	910	91849
1	42066358	911	91160
1	42113989	912	91160
1	42161925	913	93439
1	42209627	914	91849
1	42256794	915	91902
1	42304546	916	91478
1	42352237	917	92273
1	42399578	918	91107
1	42447426	919	91902
1	42495089	920	91955
1	42542672	921	92432
1	42590437	922	92114
1	42637517	923	91054
1	42685218	924	92379
1	42732442	925	90471
1	42780140	926	92485
1	42827991	927	92591
1	42875676	928	92962
1	42923202	929	90895
1	42971321	930	92856
1	43018860	931	91531
1	43066424	932	92962
1	43113880	933	90948
1	43161273	934	90365
1	43208752	935	92432
1	43256649	936	92432
1	43304189	937	91796
1	43351898	938	92220
1	43398906	939	90206
1	43447114	940	93121
1	43494016	941	90789
1	43541750	942	91796
1	43589287	943	91319
1	43636969	944	92697
1	43684888	945	91796
1	43732394	946	92856
1	43779902	947	91160
1	43827724	948	93333
1	43874987	949	89676
1	43922622	950	91849
1	43970151	951	92273
1	44017726	952	92379
1	44065622	953	92167
1	44113107	954	91266
1	44160840	955	92697
1	44208314	956	91107
1	44256181	957	92591
1	44303755	958	91266
1	44351215	959	92114
1	44398810	960	91955
1	44446654	961	92697
1	44494033	962	91478
1	44541391	963	90259
1	44588756	964	91690
1	44636513	965	92750
1	44684078	966	91425
1	44731844	967	92538
1	44779294	968	90842
1	44826911	969	92220
1	44874416	970	91372
1	44921890	971	92167
1	44969383	972	91054
1	45016957	973	92591
1	45064464	974	91849
1	45111830	975	90683
1	45159791	976	92856
1	45207348	977	91637
1	45254671	978	91637
1	45302176	979	90948
1	45349850	980	92061
1	45396926	981	90895
1	45444346	982	90577
1	45491735	983	91372
1	45539680	984	93704
1	45586984	985	90736
1	45634918	986	92485
1	45682852	987	92485
1	45729674	988	90577
1	45777393	989	91266
1	45824856	990	92061
1	45872254	991	91319
1	45920652	992	93757
1	45968597	993	92697
1	46016217	994	91690
1	46063643	995	91637
1	46111214	996	91849
1	46158874	997	92008
1	46206525	998	92008
1	46253995	999	91319
1	46301347	1000	92538
1	46349313	1001	92167
1	46396778	1002	90524
1	46444437	1003	92326
1	46491835	1004	91372
1	46539619	1005	92538
1	46587441	1006	92432
1	46634995	1007	92061
1	46682833	1008	92326
1	46730672	1009	92591
1	46777991	1010	91054
1	46825756	1011	92538
1	46873289	1012	91372
1	46921199	1013	93121
1	46968451	1014	91266
1	47016602	1015	93121
1	47063888	1016	91796
1	47111330	1017	91001
1	47158874	1018	91637
1	47206417	1019	92432
1	47253976	1020	91107
1	47301950	1021	93121
1	47349482	1022	91584
1	47397436	1023	93280
1	47444504	1024	90312
1	47492122	1025	91319
1	47539307	1026	91107
1	47586937	1027	92379
1	47634224	1028	90365
1	47681612	1029	92432
1	47729488	1030	92485
1	47776684	1031	91001
1	47824384	1032	92591
1	47871949	1033	91319
1	47919595	1034	92061
1	47967168	1035	91902
1	48014355	1036	91213
1	48062222	1037	92061
1	48109708	1038	92485
1	48157256	1039	92220
1	48204829	1040	90577
1	48252717	1041	93015
1	48300140	1042	91955
1	48347497	1043	91213
1	48395217	1044	91584
1	48442624	1045	92485
1	48490244	1046	91001
1	48537849	1047	91955
1	48585126	1048	91690
1	48633106	1049	93068
1	48680719	1050	90842
1	48728231	1051	92856
1	48775240	1052	90259
1	48823476	1053	93810
1	48870504	1054	90259
1	48918522	1055	92750
1	48966139	1056	91796
1	49013558	1057	92538
1	49061366	1058	91478
1	49108761	1059	91637
1	49156428	1060	91637
1	49204032	1061	91955
1	49251459	1062	91425
1	49299319	1063	92644
1	49346724	1064	91213
1	49394154	1065	92750
1	49442179	1066	92061
1	49489495	1067	91266
1	49537448	1068	93439
1	49584724	1069	89994
1	49632284	1070	92379
1	49679794	1071	92114
1	49727309	1072	91001
1	49775005	1073	92644
1	49822794	1074	92644
1	49870265	1075	91637
1	49917656	1076	91531
1	49965574	1077	92379
1	50012858	1078	91425
1	50060409	1079	91372
1	50108728	1080	93969
1	50155658	1081	89305
1	50203287	1082	92750
1	50251194	1083	91902
1	50298503	1084	91266
1	50346229	1085	92538
1	50393703	1086	92485
1	50441300	1087	91478
1	50489328	1088	93545
1	50536917	1089	91266
1	50584934	1090	93068
1	50632515	1091	91849
1	50680069	1092	92114
1	50727720	1093	91690
1	50775124	1094	91319
1	50822559	1095	91584
1	50869799	1096	91213
1	50917685	1097	92909
1	50965550	1098	92591
1	51012935	1099	91160
1	51060659	1100	92167
1	51108249	1101	91743
1	51156080	1102	92591
1	51203339	1103	90153
1	51251312	1104	93810
1	51298651	1105	91743
1	51346213	1106	90683
1	51393855	1107	92167
1	51441413	1108	92591
1	51488905	1109	91584
1	51536856	1110	93280
1	51584172	1111	90948
1	51631962	1112	91690
1	51679630	1113	92114
1	51727118	1114	91372
1	51774921	1115	92962
1	51822170	1116	90630
1	51869982	1117	92909
1	51917364	1118	91213
1	51965431	1119	93492
1	52012753	1120	91372
1	52060375	1121	91902
1	52108360	1122	93068
1	52155410	1123	90047
1	52203260	1124	92803
1	52250138	1125	90683
1	52298314	1126	93545
1	52345836	1127	91531
1	52393922	1128	93174
1	52441083	1129	90736
1	52488645	1130	91690
1	52535918	1131	91054
1	52583676	1132	91478
1	52630500	1133	90683
1	52678124	1134	91849
1	52725768	1135	92803
1	52773667	1136	92114
1	52821139	1137	90948
1	52868410	1138	91849
1	52916348	1139	91743
1	52963507	1140	91584
1	53011506	1141	92326
1	53058719	1142	91902
1	53106254	1143	90524
1	53153873	1144	92962
1	53201804	1145	92856
1	53248879	1146	90683
1	53296720	1147	92220
1	53344059	1148	91372
1	53392005	1149	92803
1	53439021	1150	90206
1	53486832	1151	91743
1	53534578	1152	94022
1	53582030	1153	91213
1	53629520	1154	90948
1	53677271	1155	91637
1	53724784	1156	92326
1	53772157	1157	91796
1	53820177	1158	91637
1	53867576	1159	92273
1	53915366	1160	92644
1	53963141	1161	91743
1	54010497	1162	91372
1	54058105	1163	92591
1	54105546	1164	90259
1	54153167	1165	92485
1	54200338	1166	90418
1	54247861	1167	92167
1	54295966	1168	93227
1	54343119	1169	90471
1	54391068	1170	93068
1	54438612	1171	91690
1	54486076	1172	92167
1	54533932	1173	92273
1	54581366	1174	91849
1	54629092	1175	92803
1	54676840	1176	91637
1	54724477	1177	92008
1	54772298	1178	91690
1	54819682	1179	92008
1	54867294	1180	91902
1	54914727	1181	92008
1	54962220	1182	91796
1	55009915	1183	91955
1	55057728	1184	92803
1	55105483	1185	92485
1	55152982	1186	90630
1	55200759	1187	93545
1	55248120	1188	90789
1	55295281	1189	90895
1	55342948	1190	92432
1	55390853	1191	92379
1	55438524	1192	92379
1	55485798	1193	90948
1	55533451	1194	91425
1	55580802	1195	91266
1	55628688	1196	92750
1	55676358	1197	92909
1	55724452	1198	92538
1	55771793	1199	91107
1	55819656	1200	93174
1	55867210	1201	91955
1	55914760	1202	91054
1	55962051	1203	91266
1	56009652	1204	92591
1	56057300	1205	90842
1	56104679	1206	91796
1	56152628	1207	93492
1	56199626	1208	89517
1	56247695	1209	93015
1	56295548	1210	93015
1	56342982	1211	91902
1	56390751	1212	91160
1	56438338	1213	92167
1	56485505	1214	90842
1	56533554	1215	92803
1	56580696	1216	90842
1	56628297	1217	91902
1	56675886	1218	91478
1	56723637	1219	92803
1	56771524	1220	91531
1	56819275	1221	93651
1	56866682	1222	90630
1	56914315	1223	92273
1	56961510	1224	90683
1	57009365	1225	92114
1	57057171	1226	92962
1	57104675	1227	91584
1	57153014	1228	93545
1	57200204	1229	91372
1	57247666	1230	91690
1	57295566	1231	91372
1	57342926	1232	92273
1	57390742	1233	91160
1	57438281	1234	93068
1	57485094	1235	89464
1	57532670	1236	91531
1	57579929	1237	91584
1	57627184	1238	90630
1	57674733	1239	92008
1	57722040	1240	90948
1	57769629	1241	91319
1	57817577	1242	93439
1	57864943	1243	90471
1	57912831	1244	92962
1	57960303	1245	92008
1	58007551	1246	90789
1	58055272	1247	91796
1	58103242	1248	93280
1	58150640	1249	91955
1	58198354	1250	91902
1	58245752	1251	90948
1	58293505	1252	92644
1	58340626	1253	90630
1	58388337	1254	92167
1	58435892	1255	92114
1	58483375	1256	91319
1	58531233	1257	92803
1	58578782	1258	91637
1	58626528	1259	91637
1	58674161	1260	92591
1	58722026	1261	92697
1	58769470	1262	91319
1	58817065	1263	92326
1	58864950	1264	92326
1	58912466	1265	91213
1	58960446	1266	93015
1	59008212	1267	92326
1	59055792	1268	92273
1	59103195	1269	91637
1	59151340	1270	92697
1	59198322	1271	90206
1	59245772	1272	92167
1	59293636	1273	92644
1	59341449	1274	91690
1	59388970	1275	91902
1	59436221	1276	90948
1	59483866	1277	92379
1	59531556	1278	91425
1	59579146	1279	93227
1	59626847	1280	91054
1	59674309	1281	91372
1	59721740	1282	91849
1	59769029	1283	89994
1	59816592	1284	92326
1	59864395	1285	92750
1	59911870	1286	90418
1	59959618	1287	93227
1	60007468	1288	92909
1	60054835	1289	89782
1	60102675	1290	93333
1	60150367	1291	92538
1	60198078	1292	90683
1	60245457	1293	91902
1	60293239	1294	92856
1	60340591	1295	91213
1	60388389	1296	91584
1	60436104	1297	92750
1	60483583	1298	92061
1	60531030	1299	90471
1	60579093	1300	93174
1	60626376	1301	91849
1	60674556	1302	93174
1	60722081	1303	91531
1	60769103	1304	91001
1	60816771	1305	90842
1	60863851	1306	92008
1	60911854	1307	92432
1	60959728	1308	92591
1	61007205	1309	91054
1	61054579	1310	91584
1	61102287	1311	92061
1	61149634	1312	91213
1	61197023	1313	91054
1	61245276	1314	93280
1	61292816	1315	92432
1	61340243	1316	91001
1	61387644	1317	90683
1	61435487	1318	92909
1	61483029	1319	91690
1	61530668	1320	92432
1	61578059	1321	90948
1	61625769	1322	92008
1	61673299	1323	92220
1	61720863	1324	91637
1	61768506	1325	92273
1	61816313	1326	91266
1	61863355	1327	91107
1	61911101	1328	92220
1	61958679	1329	92114
1	62006188	1330	91107
1	62053691	1331	91319
1	62101236	1332	91902
1	62148924	1333	92114
1	62196306	1334	92326
1	62244143	1335	92061
1	62291811	1336	92061
1	62339591	1337	92803
1	62387129	1338	90736
1	62434300	1339	91372