version 2
run QLearnCC-1-20100707-11:15:23-4864
attr alpha 0.1
attr configname QLearnCC
attr datetime 20100707-11:15:23
attr epsilon 0.05
attr experiment QLearnCC
attr inifile D:/Developement/Oversim2/multic/simulations/omnetpp.ini
attr iterationvars "$alpha=0.1, $lamda=1.0, $reinfup=0.5, $epsilon=0.05"
attr iterationvars2 "$alpha=0.1, $lamda=1.0, $reinfup=0.5, $epsilon=0.05, $repetition=0"
attr lamda 1.0
attr measurement "$alpha=0.1, $lamda=1.0, $reinfup=0.5, $epsilon=0.05"
attr network oversim.underlay.simpleunderlay.SimpleUnderlayNetwork
attr processid 4864
attr reinfup 0.5
attr repetition 0
attr replication #0
attr resultdir results
attr runnumber 1
attr seedset 1

vector 1  SimpleUnderlayNetwork.globalObserver.globalStatistics  incoming_bytes  ETV
vector 2  SimpleUnderlayNetwork.globalObserver.globalStatistics  drops  ETV
vector 3  SimpleUnderlayNetwork.globalObserver.globalStatistics  9rateOf1To0  ETV
vector 4  SimpleUnderlayNetwork.globalObserver.globalStatistics  max9RateOf1To0  ETV
vector 5  SimpleUnderlayNetwork.globalObserver.globalStatistics  9rateOf1To1  ETV
vector 6  SimpleUnderlayNetwork.globalObserver.globalStatistics  max9RateOf1To1  ETV
vector 7  SimpleUnderlayNetwork.globalObserver.globalStatistics  9rateOf1To2  ETV
vector 8  SimpleUnderlayNetwork.globalObserver.globalStatistics  max9RateOf1To2  ETV
vector 9  SimpleUnderlayNetwork.globalObserver.globalStatistics  9rateOf1To3  ETV
vector 10  SimpleUnderlayNetwork.globalObserver.globalStatistics  max9RateOf1To3  ETV
vector 11  SimpleUnderlayNetwork.globalObserver.globalStatistics  9rateOf1To4  ETV
vector 12  SimpleUnderlayNetwork.globalObserver.globalStatistics  max9RateOf1To4  ETV
vector 13  SimpleUnderlayNetwork.globalObserver.globalStatistics  9rateOf1To5  ETV
vector 14  SimpleUnderlayNetwork.globalObserver.globalStatistics  max9RateOf1To5  ETV
vector 15  SimpleUnderlayNetwork.globalObserver.globalStatistics  9rateOf1To6  ETV
vector 16  SimpleUnderlayNetwork.globalObserver.globalStatistics  max9RateOf1To6  ETV
vector 17  SimpleUnderlayNetwork.globalObserver.globalStatistics  9rateOf1To7  ETV
vector 18  SimpleUnderlayNetwork.globalObserver.globalStatistics  max9RateOf1To7  ETV
vector 19  SimpleUnderlayNetwork.globalObserver.globalStatistics  9rateOf1To8  ETV
vector 20  SimpleUnderlayNetwork.globalObserver.globalStatistics  max9RateOf1To8  ETV
vector 21  SimpleUnderlayNetwork.globalObserver.globalStatistics  9rateOf1To9  ETV
vector 22  SimpleUnderlayNetwork.globalObserver.globalStatistics  max9RateOf1To9  ETV
vector 23  SimpleUnderlayNetwork.globalObserver.globalStatistics  1rate  ETV
vector 24  SimpleUnderlayNetwork.globalObserver.globalStatistics  max2Rate  ETV
vector 25  SimpleUnderlayNetwork.globalObserver.globalStatistics  "GlobalNodeList: Number of nodes"  ETV
vector 26  SimpleUnderlayNetwork.globalObserver.globalStatistics  "GlobalNodeList: Number of bootstrapped malicious nodes"  ETV
1	4462111	117	88139
1	4510779	118	92167
1	4558789	119	91531
1	4606842	120	90418
1	4654628	121	90418
1	4702879	122	91478
1	4750951	123	89623
1	4798580	124	88934
1	4846858	125	92273
1	4895567	126	92962
1	4942954	127	88139
1	4991272	128	92273
1	5039656	129	90524
1	5087530	130	91478
1	5135372	131	89676
1	5183519	132	90842
1	5231552	133	89994
1	5279336	134	90153
1	5327573	135	89994
1	5375148	136	91107
1	5423150	137	90471
1	5471463	138	91001
1	5519516	139	90471
1	5567918	140	90895
1	5615722	141	91107
1	5663654	142	89782
1	5711634	143	91054
1	5759534	144	90736
1	5808296	145	91478
1	5855974	146	90948
1	5904372	147	90153
1	5951818	148	89305
1	6000388	149	92220
1	6047962	150	89093
1	6096360	151	92591
1	6144363	152	89464
1	6192211	153	91107
1	6240711	154	91796
1	6288159	155	89040
1	6336477	156	91584
1	6384074	157	87980
1	6432178	158	91796
1	6480259	159	90047
1	6528199	160	91425
1	6575866	161	89305
1	6624254	162	91637
1	6672280	163	91160
1	6720459	164	89994
1	6768249	165	90047
1	6815677	166	89676
1	6864140	167	91796
1	6912054	168	90418
1	6960246	169	91001
1	7008062	170	89517
1	7056447	171	92432
1	7104613	172	90630
1	7152327	173	89358
1	7200517	174	91107
1	7248592	175	91955
1	7296801	176	89146
1	7345081	177	91743
1	7392718	178	91531
1	7440724	179	89040
1	7488721	180	91213
1	7536859	181	91478
1	7584399	182	89358
1	7632795	183	91319
1	7680897	184	90789
1	7728989	185	90153
1	7776529	186	90153
1	7824837	187	91531
1	7872784	188	89835
1	7920839	189	90365
1	7968513	190	90100
1	8017210	191	91955
1	8064090	192	88404
1	8112892	193	92273
1	8160572	194	90365
1	8208608	195	88934
1	8256511	196	91001
1	8305096	197	92326
1	8353200	198	90895
1	8401136	199	91001
1	8449200	200	90100
1	8497259	201	91849
1	8545155	202	89093
1	8593446	203	91160
1	8641228	204	90577
1	8689840	205	91849
1	8737577	206	89676
1	8785276	207	89888
1	8833564	208	91955
1	8881826	209	90630
1	8929702	210	90312
1	8977872	211	90206
1	9025562	212	90524
1	9073637	213	90100
1	9122032	214	92379
1	9170255	215	91478
1	9217971	216	89464
1	9266186	217	91478
1	9314096	218	89888
1	9362253	219	91372
1	9410165	220	89676
1	9458579	221	92220
1	9506108	222	89146
1	9554301	223	91319
1	9602056	224	88881
1	9650264	225	92485
1	9698095	226	90365
1	9746000	227	89517
1	9794285	228	91531
1	9842084	229	90100
1	9889897	230	89570
1	9937896	231	90683
1	9985949	232	90471
1	10033790	233	89570
1	10081725	234	89729
1	10129502	235	90418
1	10177907	236	90789
1	10225959	237	90630
1	10273569	238	89941
1	10321682	239	90683
1	10369885	240	91796
1	10417627	241	88987
1	10466470	242	91902
1	10513697	243	89623
1	10561549	244	89570
1	10609915	245	91001
1	10658080	246	91107
1	10705504	247	89464
1	10753849	248	91637
1	10801952	249	90577
1	10850277	250	91743
1	10898561	251	90418
1	10946432	252	90524
1	10994502	253	90948
1	11042504	254	90259
1	11089972	255	88934
1	11138420	256	91849
1	11186404	257	91213
1	11234560	258	90312
1	11282526	259	90577
1	11330777	260	91478
1	11378575	261	91160
1	11426570	262	89199
1	11474519	263	91796
1	11522612	264	89570
1	11570839	265	91425
1	11618709	266	89835
1	11667161	267	92114
1	11714595	268	87821
1	11762793	269	92167
1	11810913	270	91107
1	11859008	271	90948
1	11906918	272	90100
1	11954854	273	90312
1	12003213	274	91425
1	12050795	275	89199
1	12099135	276	91319
1	12146512	277	89411
1	12195072	278	90948
1	12243003	279	90259
1	12290665	280	90789
1	12339037	281	90418
1	12386972	282	90259
1	12435020	283	91478
1	12482622	284	89517
1	12531243	285	92220
1	12579355	286	90365
1	12627215	287	90736
1	12675374	288	90948
1	12723584	289	91107
1	12771432	290	89093
1	12819051	291	89570
1	12866977	292	90736
1	12915408	293	91902
1	12962869	294	88616
1	13011230	295	91690
1	13058893	296	90418
1	13107331	297	91425
1	13155408	298	90577
1	13203154	299	88987
1	13251709	300	92432
1	13299388	301	90630
1	13347550	302	91001
1	13395147	303	89305
1	13443149	304	89729
1	13491559	305	91743
1	13539379	306	91054
1	13587506	307	89676
1	13635565	308	90948
1	13683484	309	90471
1	13731715	310	90153
1	13779659	311	91319
1	13827564	312	90365
1	13875405	313	90047
1	13923825	314	91054
1	13971847	315	91107
1	14019540	316	90365
1	14067662	317	90789
1	14115778	318	90842
1	14163454	319	89782
1	14211794	320	91425
1	14259677	321	90789
1	14307659	322	90577
1	14356207	323	91160
1	14403619	324	88987
1	14451400	325	91001
1	14499712	326	90736
1	14547470	327	89411
1	14595258	328	90736
1	14643368	329	90524
1	14691321	330	90789
1	14739590	331	91372
1	14787848	332	91001
1	14835734	333	90153
1	14883868	334	90630
1	14931807	335	90948
1	14979422	336	89305
1	15027712	337	92008
1	15075857	338	90789
1	15123901	339	90259
1	15171914	340	90524
1	15219511	341	88934
1	15267800	342	91266
1	15315385	343	91160
1	15363811	344	90789
1	15411538	345	88881
1	15459547	346	91001
1	15507684	347	90630
1	15556101	348	93439
1	15603277	349	87344
1	15651455	350	90630
1	15699408	351	91372
1	15747877	352	91425
1	15796298	353	92061
1	15844026	354	89252
1	15892482	355	92432
1	15939594	356	87238
1	15988090	357	92803
1	16035821	358	88775
1	16083854	359	91584
1	16131779	360	90471
1	16179864	361	90100
1	16228233	362	92326
1	16276045	363	89040
1	16324208	364	91584
1	16372546	365	92379
1	16420222	366	88722
1	16468383	367	91849
1	16516670	368	90471
1	16564628	369	91160
1	16612648	370	91107
1	16660593	371	90895
1	16708832	372	89729
1	16756961	373	90948
1	16804618	374	90524
1	16852727	375	90153
1	16900884	376	91425
1	16949081	377	89888
1	16996912	378	90895
1	17045163	379	92432
1	17092718	380	88828
1	17140911	381	90736
1	17188445	382	88404
1	17236107	383	90365
1	17284236	384	91690
1	17332510	385	90524
1	17380547	386	90948
1	17428156	387	88881
1	17476022	388	90471
1	17524191	389	90895
1	17572457	390	91319
1	17620438	391	89835
1	17668551	392	91796
1	17716144	393	90471
1	17764281	394	90100
1	17812430	395	91213
1	17860334	396	90153
1	17908537	397	91213
1	17956186	398	89570
1	18004466	399	91849
1	18051928	400	88298
1	18100337	401	91319
1	18148228	402	89729
1	18196104	403	90683
1	18243910	404	89729
1	18292287	405	92114
1	18340204	406	90842
1	18388440	407	90683
1	18435990	408	89570
1	18484136	409	90577
1	18531704	410	88563
1	18579756	411	91531
1	18628069	412	91266
1	18676196	413	91637
1	18723974	414	89835
1	18771954	415	88881
1	18820089	416	91372
1	18868224	417	91478
1	18915926	418	88934
1	18963902	419	91637
1	19011559	420	89040
1	19059797	421	90736
1	19108036	422	91160
1	19155852	423	90365
1	19204119	424	91001
1	19252028	425	90630
1	19300014	426	89517
1	19348145	427	91372
1	19396018	428	89676
1	19444079	429	90789
1	19492165	430	90471
1	19540214	431	91266
1	19587903	432	89411
1	19635986	433	91213
1	19684279	434	90789
1	19732273	435	89941
1	19780416	436	91584
1	19827903	437	89464
1	19876040	438	90683
1	19924305	439	91531
1	19972194	440	90153
1	20020384	441	90895
1	20068635	442	90895
1	20116612	443	90047
1	20164449	444	90842
1	20212860	445	91690
1	20260629	446	89941
1	20308527	447	90471
1	20356472	448	90418
1	20404716	449	90577
1	20452482	450	89676
1	20500737	451	91372
1	20548699	452	90895
1	20597095	453	91160
1	20644661	454	89941
1	20693152	455	91849
1	20741027	456	90471
1	20789418	457	91160
1	20837146	458	90418
1	20885377	459	90418
1	20933319	460	90842
1	20981011	461	89676
1	21029232	462	90153
1	21077611	463	92379
1	21125204	464	88934
1	21173462	465	91425
1	21221261	466	90524
1	21269311	467	90259
1	21316902	468	89994
1	21365334	469	90736
1	21413187	470	90100
1	21461557	471	91743
1	21509187	472	89782
1	21557100	473	89782
1	21605080	474	90683
1	21653102	475	90100
1	21700758	476	90524
1	21749267	477	90630
1	21797199	478	91266
1	21845332	479	90683
1	21893490	480	91054
1	21941074	481	89252
1	21989754	482	92644
1	22037415	483	89358
1	22085235	484	89835
1	22133490	485	91425
1	22181726	486	92167
1	22229600	487	90206
1	22277433	488	89623
1	22325752	489	91160
1	22373664	490	90948
1	22421530	491	88987
1	22469671	492	92167
1	22518067	493	90418
1	22565682	494	89623
1	22613653	495	91001
1	22661529	496	90418
1	22709602	497	90789
1	22757629	498	90312
1	22806145	499	92008
1	22854137	500	90418
1	22901803	501	90365
1	22949385	502	89305
1	22997714	503	91160
1	23045827	504	91531
1	23093727	505	89199
1	23142049	506	91743
1	23189624	507	89093
1	23237842	508	91372
1	23285905	509	90153
1	23333861	510	91213
1	23382154	511	91213
1	23429962	512	90736
1	23478360	513	90630
1	23526228	514	89835
1	23574128	515	90206
1	23622039	516	90100
1	23670224	517	90736
1	23717862	518	91160
1	23765681	519	89305
1	23813750	520	90630
1	23862233	521	91902
1	23910111	522	90471
1	23958132	523	90100
1	24006084	524	90365
1	24053815	525	90047
1	24101537	526	89040
1	24150040	527	91902
1	24197803	528	90630
1	24246116	529	91107
1	24294647	530	92167
1	24342150	531	88775
1	24390238	532	91213
1	24438794	533	91107
1	24486527	534	91902
1	24534395	535	88987
1	24582423	536	91372
1	24630514	537	90842
1	24678414	538	89252
1	24726377	539	90524
1	24773847	540	89199
1	24822194	541	91425
1	24870408	542	91054
1	24918108	543	89358
1	24966278	544	91584
1	25013887	545	88616
1	25061890	546	90418
1	25109317	547	89252
1	25157521	548	91796
1	25205586	549	90577
1	25253769	550	89570
1	25301560	551	90100
1	25350045	552	91849
1	25397833	553	90789
1	25446448	554	91637
1	25494563	555	90524
1	25542534	556	91266
1	25590283	557	88086
1	25638227	558	90736
1	25686588	559	91796
1	25734389	560	90736
1	25782470	561	91054
1	25830277	562	88934
1	25878245	563	91054
1	25925934	564	88934
1	25974002	565	91425
1	26022153	566	90524
1	26070108	567	90153
1	26118269	568	91425
1	26165934	569	89888
1	26213995	570	90842
1	26262023	571	89517
1	26310112	572	90842
1	26358223	573	91584
1	26406216	574	90524
1	26453993	575	89464
1	26502064	576	91319
1	26550292	577	89941
1	26598001	578	90312
1	26645985	579	91266
1	26693955	580	90736
1	26742270	581	90736
1	26790348	582	90630
1	26838385	583	91001
1	26886063	584	89199
1	26934353	585	91690
1	26982262	586	89464
1	27030081	587	90100
1	27078285	588	90577
1	27126074	589	90312
1	27174089	590	89994
1	27221950	591	91107
1	27270451	592	90630
1	27318196	593	90206
1	27366177	594	90842
1	27414651	595	91531
1	27462566	596	90259
1	27510201	597	89623
1	27558571	598	92167
1	27606847	599	91690
1	27654602	600	89570
1	27702846	601	91107
1	27750519	602	89676
1	27798494	603	89941
1	27846339	604	90100
1	27894571	605	91107
1	27942636	606	91584
1	27990808	607	90577
1	28038523	608	89358
1	28086745	609	91796
1	28134553	610	88987
1	28182793	611	92697
1	28230171	612	88722
1	28278547	613	91372
1	28326773	614	91266
1	28374834	615	90312
1	28422549	616	89835
1	28470841	617	91001
1	28518605	618	89888
1	28566585	619	90630
1	28614680	620	89994
1	28662450	621	90259
1	28710833	622	91849
1	28758763	623	90630
1	28806926	624	90948
1	28854587	625	89358
1	28902878	626	91690
1	28950490	627	89146
1	28998720	628	91372
1	29046668	629	89888
1	29094610	630	91266
1	29142655	631	89517
1	29190876	632	91637
1	29239184	633	91372
1	29286915	634	90153
1	29335028	635	90471
1	29383491	636	91955
1	29431113	637	88987
1	29479503	638	91849
1	29527176	639	90206
1	29575266	640	89994
1	29622960	641	90577
1	29671145	642	90312
1	29719352	643	91955
1	29767581	644	90683
1	29815257	645	88722
1	29863303	646	90842
1	29911726	647	90736
1	29959107	648	89464
1	30007389	649	91054
1	30055271	650	90895
1	30103453	651	90365
1	30151219	652	89252
1	30199740	653	92909
1	30247830	654	90206
1	30295706	655	90683
1	30344144	656	92061
1	30391731	657	89994
1	30440297	658	92697
1	30488524	659	89676
1	30536295	660	90736
1	30584687	661	91001
1	30632259	662	89517
1	30680588	663	91213
1	30728299	664	90471
1	30776747	665	91690
1	30824204	666	88934
1	30872633	667	90842
1	30920734	668	90789
1	30968882	669	91849
1	31016920	670	90047
1	31064344	671	89358
1	31112463	672	90206
1	31160275	673	90524
1	31208228	674	89411
1	31256402	675	91372
1	31304269	676	89570
1	31352071	677	90948
1	31400537	678	92485
1	31448497	679	89464
1	31496272	680	90153
1	31544749	681	91584
1	31592434	682	90047
1	31640721	683	90471
1	31688713	684	90789
1	31736006	685	89093
1	31784265	686	90789
1	31831995	687	89941
1	31880398	688	91531
1	31928038	689	89888
1	31976078	690	90259
1	32024255	691	92114
1	32072519	692	90895
1	32120509	693	90312
1	32168598	694	90259
1	32216568	695	90948
1	32264921	696	91955
1	32312575	697	89835
1	32360878	698	91266
1	32408899	699	89888
1	32456615	700	90153
1	32504759	701	91743
1	32552372	702	89252
1	32600716	703	91001
1	32648667	704	89729
1	32696723	705	90206
1	32744581	706	90948
1	32792869	707	90312
1	32841567	708	92962
1	32888429	709	87715
1	32936286	710	90153
1	32984429	711	91160
1	33032771	712	91213
1	33080601	713	89782
1	33128542	714	90418
1	33176320	715	89729
1	33224348	716	90842
1	33272570	717	91107
1	33320588	718	90630
1	33368562	719	90789
1	33416792	720	91213
1	33464741	721	89782
1	33512829	722	91319
1	33560973	723	91107
1	33608643	724	89305
1	33657153	725	91160
1	33704937	726	90365
1	33752872	727	90418
1	33801123	728	90630
1	33848808	729	90312
1	33896976	730	90312
1	33944851	731	90577
1	33992910	732	90895
1	34041231	733	90630
1	34089101	734	91213
1	34136694	735	87874
1	34185118	736	91531
1	34233107	737	91425
1	34281226	738	91372
1	34328698	739	88616
1	34377298	740	91478
1	34424886	741	90471
1	34473283	742	91902
1	34521144	743	89888
1	34569442	744	92167
1	34617666	745	90418
1	34665574	746	90100
1	34713499	747	90153
1	34761304	748	90630
1	34809841	749	91372
1	34857770	750	90153
1	34905624	751	91107
1	34953824	752	90471
1	35001809	753	90577
1	35049964	754	91531
1	35097872	755	90418
1	35145993	756	90100
1	35194216	757	91372
1	35242191	758	90577
1	35290177	759	91266
1	35338577	760	90418
1	35386832	761	91213
1	35434511	762	89888
1	35482691	763	91584
1	35531059	764	91425
1	35578865	765	89941
1	35626692	766	89888
1	35675024	767	91849
1	35723119	768	90471
1	35770739	769	89093
1	35818786	770	91001
1	35866990	771	91001
1	35914950	772	90312
1	35963063	773	91849
1	36011130	774	89994
1	36058816	775	89199
1	36107238	776	91955
1	36155206	777	91054
1	36203003	778	88987
1	36250831	779	89782
1	36298360	780	89199
1	36346534	781	90524
1	36394810	782	91955
1	36442440	783	88934
1	36490445	784	90683
1	36538223	785	90259
1	36586215	786	90524
1	36634417	787	90948
1	36682926	788	92008
1	36730567	789	89040
1	36778245	790	90153
1	36826776	791	92432
1	36875045	792	89941
1	36922694	793	90418
1	36970281	794	89676
1	37018459	795	91001
1	37066832	796	90948
1	37114223	797	88987
1	37162753	798	93174
1	37210862	799	90418
1	37258849	800	89411
1	37306786	801	91160
1	37354383	802	88722
1	37402593	803	91266
1	37450199	804	89570
1	37498602	805	91690
1	37546243	806	89782
1	37594674	807	91001
1	37642216	808	89464
1	37690367	809	91372
1	37738609	810	90789
1	37786947	811	92167
1	37834543	812	89676
1	37882787	813	90895
1	37930548	814	90100
1	37978761	815	90312
1	38026699	816	90789
1	38074692	817	91001
1	38122738	818	89941
1	38170582	819	90842
1	38218808	820	89623
1	38266291	821	89941
1	38314585	822	91584
1	38362609	823	91001
1	38410397	824	89040
1	38458238	825	90047
1	38506650	826	92114
1	38554321	827	88563
1	38602652	828	92591
1	38650014	829	88033
1	38698229	830	91531
1	38746316	831	91160
1	38794263	832	90365
1	38841974	833	88669
1	38890345	834	91584
1	38937900	835	90259
1	38985887	836	90153
1	39033977	837	90206
1	39082223	838	91584
1	39130242	839	89994
1	39178000	840	89782
1	39226459	841	91425
1	39274092	842	90047
1	39322418	843	92008
1	39370106	844	89464
1	39418177	845	90206
1	39466046	846	90895
1	39514615	847	90895
1	39562447	848	91001
1	39610382	849	90789
1	39658674	850	90471
1	39706286	851	88881
1	39754316	852	90365
1	39802501	853	91372
1	39850307	854	90736
1	39898489	855	90842
1	39946408	856	89570
1	39994364	857	92114
1	40042118	858	88298
1	40089893	859	90630
1	40138243	860	91796
1	40186416	861	91213
1	40233962	862	89411
1	40281952	863	89782
1	40329686	864	89994
1	40378396	865	92167
1	40425544	866	88881
1	40473971	867	90577
1	40521646	868	90312
1	40570189	869	92008
1	40617404	870	88351
1	40665866	871	91478
1	40713704	872	90153
1	40761814	873	91425
1	40809551	874	90100
1	40857910	875	91107
1	40906057	876	90736
1	40953739	877	89676
1	41001888	878	91584
1	41049439	879	88934
1	41098163	880	92273
1	41145723	881	89888
1	41194186	882	91743
1	41242091	883	90100
1	41289970	884	90365
1	41337676	885	89199
1	41385949	886	92220
1	41433925	887	90577
1	41482156	888	90418
1	41529934	889	90418
1	41578069	890	90153
1	41625906	891	90365
1	41674162	892	91372
1	41722430	893	90100
1	41770058	894	90418
1	41818299	895	90789
1	41866119	896	90630
1	41914425	897	90789
1	41961906	898	89146
1	42010067	899	90895
1	42057780	900	89941
1	42106118	901	90630
1	42153641	902	89093
1	42201664	903	90471
1	42249928	904	91637
1	42297719	905	88881
1	42345620	906	90736
1	42394260	907	92326
1	42441933	908	90259
1	42489940	909	90259
1	42537789	910	89411
1	42585894	911	91160
1	42633943	912	90895
1	42682622	913	91478
1	42730183	914	89305
1	42777820	915	90418
1	42825366	916	88775
1	42873859	917	91213
1	42921970	918	91425
1	42969731	919	89040
1	43017564	920	90418
1	43065425	921	90524
1	43112904	922	88881
1	43161027	923	91584
1	43208954	924	89252
1	43257249	925	91054
1	43305105	926	90577
1	43353190	927	91531
1	43401447	928	91372
1	43449548	929	91213
1	43497335	930	88033
1	43545633	931	91266
1	43593288	932	90471
1	43641599	933	91425
1	43689565	934	90312
1	43737842	935	91637
1	43785507	936	88086
1	43833632	937	91902
1	43881894	938	91372
1	43930062	939	91266
1	43978127	940	90471
1	44025984	941	89729
1	44073783	942	90153
1	44121960	943	92114
1	44169862	944	88616
1	44218220	945	92538
1	44266199	946	90524
1	44314032	947	89570
1	44362861	948	92379
1	44410569	949	89623
1	44458779	950	91743
1	44507129	951	91584
1	44554813	952	89040
1	44602743	953	90259
1	44650904	954	90842
1	44698806	955	90153
1	44746247	956	89040
1	44794402	957	90524
1	44842557	958	91478
1	44890858	959	91319
1	44938647	960	89570
1	44986750	961	90047
1	45034771	962	90842
1	45082799	963	91478
1	45130834	964	90047
1	45178800	965	90418
1	45226543	966	89464
1	45274559	967	91160
1	45323165	968	92167
1	45370831	969	88987
1	45419214	970	91425
1	45466624	971	88881
1	45514751	972	92008
1	45562822	973	90312
1	45610959	974	90418
1	45659078	975	91213
1	45706771	976	90153
1	45754881	977	90577
1	45803154	978	90948
1	45850950	979	89411
1	45899038	980	91107
1	45947298	981	91955
1	45995392	982	89146
1	46043414	983	91054
1	46091198	984	89941
1	46139000	985	91054
1	46187294	986	91054
1	46235613	987	91372
1	46283350	988	89305
1	46331662	989	92061
1	46379542	990	89517
1	46427916	991	91478
1	46475784	992	90100
1	46523490	993	89782
1	46571443	994	90047
1	46619623	995	90789
1	46667903	996	91849
1	46715774	997	89941
1	46763890	998	91319
1	46811161	999	88563
1	46859499	1000	89941
1	46907748	1001	92220
1	46955491	1002	89464
1	47003383	1003	89941
1	47051167	1004	89676
1	47099951	1005	92909
1	47147900	1006	90259
1	47196040	1007	91849
1	47243670	1008	89146
1	47292205	1009	91796
1	47339752	1010	89888
1	47388084	1011	91584
1	47436290	1012	90736
1	47484005	1013	89835
1	47531721	1014	89729
1	47580118	1015	91796
1	47627680	1016	88722
1	47675788	1017	90895
1	47723857	1018	90100
1	47771941	1019	90736
1	47819750	1020	89305
1	47867961	1021	91743
1	47915769	1022	90206
1	47963913	1023	91001
1	48011964	1024	90683
1	48059891	1025	90206
1	48108035	1026	90683
1	48156353	1027	91584
1	48204207	1028	89994
1	48252272	1029	91054
1	48300652	1030	91690
1	48348231	1031	89464
1	48396412	1032	91001
1	48445008	1033	90736
1	48492700	1034	90471
1	48539814	1035	88245
1	48588537	1036	91531
1	48636282	1037	91478
1	48685078	1038	91637
1	48732351	1039	89358
1	48780125	1040	88298
1	48828138	1041	91531
1	48875675	1042	88881
1	48923841	1043	91425
1	48971861	1044	90471
1	49019609	1045	89199
1	49067957	1046	91372
1	49116113	1047	91690
1	49163835	1048	87980
1	49211712	1049	90577
1	49259520	1050	90683
1	49307561	1051	91054
1	49356038	1052	90789
1	49403621	1053	90100
1	49451660	1054	91637
1	49499843	1055	89411
1	49547838	1056	91319
1	49595737	1057	89570
1	49643181	1058	90100
1	49691665	1059	91902
1	49740012	1060	91478
1	49787695	1061	89464
1	49835576	1062	89994
1	49883565	1063	90153
1	49931645	1064	90100
1	49979401	1065	89305
1	50027120	1066	90365
1	50075163	1067	90524
1	50123433	1068	91955
1	50170891	1069	88563
1	50219539	1070	92538
1	50267178	1071	89623
1	50315056	1072	88722
1	50362711	1073	90736
1	50411141	1074	91531
1	50459451	1075	91213
1	50507326	1076	90577
1	50555498	1077	90630
1	50603456	1078	90895
1	50651449	1079	90736
1	50699715	1080	91001
1	50747470	1081	89570
1	50795278	1082	89994
1	50843790	1083	92326
1	50891476	1084	89093
1	50940017	1085	91955
1	50988004	1086	90842
1	51036031	1087	90789
1	51083710	1088	88775
1	51131571	1089	90153
1	51179683	1090	91054
1	51228131	1091	91531
1	51275938	1092	90577
1	51323910	1093	89252
1	51372093	1094	91001
1	51419880	1095	90100
1	51467749	1096	89570
1	51515921	1097	91425
1	51564337	1098	91213
1	51612392	1099	91743
1	51660299	1100	89888
1	51708338	1101	89888
1	51756049	1102	89093
1	51804374	1103	92220
1	51852246	1104	90630
1	51899900	1105	89835
1	51948319	1106	91107
1	51996575	1107	90524
1	52044155	1108	90153
1	52092337	1109	90206
1	52140714	1110	91531
1	52188473	1111	90047
1	52236609	1112	90842
1	52284333	1113	89570
1	52332445	1114	91001
1	52380878	1115	91902
1	52428513	1116	88987
1	52476645	1117	91160
1	52524863	1118	91372
1	52572859	1119	90259
1	52620384	1120	89358
1	52668457	1121	90312
1	52716355	1122	90471
1	52764617	1123	92485
1	52812456	1124	89358
1	52860792	1125	91478
1	52908583	1126	89676
1	52956249	1127	90471
1	53004384	1128	90577
1	53052642	1129	91107
1	53100469	1130	90630
1	53148288	1131	89517
1	53196626	1132	91372
1	53244566	1133	90153
1	53292723	1134	91743
1	53340572	1135	89464
1	53388747	1136	91478
1	53436740	1137	90100
1	53484645	1138	90047
1	53532887	1139	91054
1	53581241	1140	92538
1	53629303	1141	90365
1	53677090	1142	89835
1	53725030	1143	90524
1	53773090	1144	90100
1	53821443	1145	91425
1	53869169	1146	89517
1	53917446	1147	91849
1	53965856	1148	91213
1	54013595	1149	89888
1	54061425	1150	89994
1	54109263	1151	90312
1	54157503	1152	91213
1	54205326	1153	89570
1	54253200	1154	89888
1	54301219	1155	91001
1	54349493	1156	90842
1	54397106	1157	90259
1	54445550	1158	91372
1	54493147	1159	89358
1	54541511	1160	91743
1	54589518	1161	90524
1	54637412	1162	90312
1	54685503	1163	90153
1	54733681	1164	91213
1	54781542	1165	91001
1	54829824	1166	91425
1	54877865	1167	89252
1	54925347	1168	89623
1	54973488	1169	91001
1	55021622	1170	91107
1	55069723	1171	90895
1	55117404	1172	88775
1	55165467	1173	91213
1	55213653	1174	90736
1	55261197	1175	89517
1	55309885	1176	92008
1	55357709	1177	91107
1	55405640	1178	89888
1	55453479	1179	89146
1	55501753	1180	92379
1	55549806	1181	90524
1	55598068	1182	91902
1	55646050	1183	89835
1	55693909	1184	89623
1	55741915	1185	91372
1	55790119	1186	90365
1	55837637	1187	89570
1	55885703	1188	91107
1	55933985	1189	90206
1	55981772	1190	90100
1	56029576	1191	89994
1	56077710	1192	90736
1	56125289	1193	89358
1	56173441	1194	91213
1	56221937	1195	91478
1	56269420	1196	90259
1	56317594	1197	90365
1	56366038	1198	92061
1	56413222	1199	87927
1	56461409	1200	91054
1	56509695	1201	90948
1	56557856	1202	91743
1	56605497	1203	88775
1	56654097	1204	92909
1	56702062	1205	90524
1	56749937	1206	89199
1	56797982	1207	90842
1	56845527	1208	89093
1	56893809	1209	91531
1	56941697	1210	89782
1	56990203	1211	92644
1	57038080	1212	89358
1	57085878	1213	90047
1	57134005	1214	92114
1	57182008	1215	89888
1	57230254	1216	92167
1	57278261	1217	89782
1	57326354	1218	90365
1	57374138	1219	90683
1	57422509	1220	91425
1	57470377	1221	90206
1	57518665	1222	90736
1	57566610	1223	91584
1	57614999	1224	91160
1	57662665	1225	89994
1	57710536	1226	90471
1	57759155	1227	92379
1	57806932	1228	90153
1	57854474	1229	87715
1	57902653	1230	91531
1	57950482	1231	90577
1	57998653	1232	89676
1	58047020	1233	91796
1	58094879	1234	90630
1	58143236	1235	91743
1	58191443	1236	90630
1	58239308	1237	90100
1	58287840	1238	91796
1	58335504	1239	90206
1	58383337	1240	88351
1	58431253	1241	91425
1	58479318	1242	90047
1	58527656	1243	91372
1	58575244	1244	89676
1	58623407	1245	91213
1	58671192	1246	90577
1	58718595	1247	88563
1	58767265	1248	92485
1	58815403	1249	90842
1	58863314	1250	90153
1	58911414	1251	91319
1	58959352	1252	89941
1	59007430	1253	90789
1	59055380	1254	89040
1	59103482	1255	91743
1	59151503	1256	90418
1	59199352	1257	91107
1	59247402	1258	89252
1	59295291	1259	89782
1	59343466	1260	91902
1	59391397	1261	90577
1	59439623	1262	91372
1	59487610	1263	90789
1	59535598	1264	90259
1	59583528	1265	89835
1	59631286	1266	89093
1	59679517	1267	92326
1	59727325	1268	89305
1	59775618	1269	90842
1	59823151	1270	89464
1	59871222	1271	90100
1	59918959	1272	90365
1	59967525	1273	91584
1	60015213	1274	90895
1	60063779	1275	91107
1	60111664	1276	90153
1	60159689	1277	91054
1	60207810	1278	89888
1	60255764	1279	91054
1	60303579	1280	89941
1	60351994	1281	93015
1	60399895	1282	88404
1	60447703	1283	90047
1	60496100	1284	92432
1	60544040	1285	90577
1	60592343	1286	91001
1	60640568	1287	90206
1	60688485	1288	90842
1	60736156	1289	89358
1	60784695	1290	92326
1	60832378	1291	89941
1	60880587	1292	90418
1	60928248	1293	89782
1	60976623	1294	91266
1	61023932	1295	88987
1	61072440	1296	92273
1	61120356	1297	89994
1	61168394	1298	90630
1	61216222	1299	90100
1	61264927	1300	92326
1	61312622	1301	89358
1	61360185	1302	89358
1	61408749	1303	92220
1	61456413	1304	89835
1	61504948	1305	91743
1	61552856	1306	89835
1	61600699	1307	91160
1	61648835	1308	90842
1	61696781	1309	90206
1	61744846	1310	90842
1	61792222	1311	88934
1	61840805	1312	91849
1	61888571	1313	89570
1	61936866	1314	91372
1	61984513	1315	89093
1	62032579	1316	90895
1	62080356	1317	90789
1	62128703	1318	91160
1	62176733	1319	90524
1	62224866	1320	90312
1	62273007	1321	91319
1	62320836	1322	89623
1	62368964	1323	91637
1	62416816	1324	90312
1	62464779	1325	88987
1	62513091	1326	91001
1	62560331	1327	89570
1	62608486	1328	90100
1	62656990	1329	92379
1	62704710	1330	89676
1	62753096	1331	91107
1	62800433	1332	88881
1	62848669	1333	91160
1	62896910	1334	91478
1	62944726	1335	89093