version 2
run QLearnCC-6-20100707-12:00:05-3656
attr alpha 0.1
attr configname QLearnCC
attr datetime 20100707-12:00:05
attr epsilon 0.1
attr experiment QLearnCC
attr inifile D:/Developement/Oversim2/multic/simulations/omnetpp.ini
attr iterationvars "$alpha=0.1, $lamda=1.0, $reinfup=0.1, $epsilon=0.1"
attr iterationvars2 "$alpha=0.1, $lamda=1.0, $reinfup=0.1, $epsilon=0.1, $repetition=0"
attr lamda 1.0
attr measurement "$alpha=0.1, $lamda=1.0, $reinfup=0.1, $epsilon=0.1"
attr network oversim.underlay.simpleunderlay.SimpleUnderlayNetwork
attr processid 3656
attr reinfup 0.1
attr repetition 0
attr replication #0
attr resultdir results
attr runnumber 6
attr seedset 6

vector 1  SimpleUnderlayNetwork.globalObserver.globalStatistics  incoming_bytes  ETV
vector 2  SimpleUnderlayNetwork.globalObserver.globalStatistics  drops  ETV
vector 3  SimpleUnderlayNetwork.globalObserver.globalStatistics  9rateOf1To0  ETV
vector 4  SimpleUnderlayNetwork.globalObserver.globalStatistics  max9RateOf1To0  ETV
vector 5  SimpleUnderlayNetwork.globalObserver.globalStatistics  9rateOf1To1  ETV
vector 6  SimpleUnderlayNetwork.globalObserver.globalStatistics  max9RateOf1To1  ETV
vector 7  SimpleUnderlayNetwork.globalObserver.globalStatistics  9rateOf1To2  ETV
vector 8  SimpleUnderlayNetwork.globalObserver.globalStatistics  max9RateOf1To2  ETV
vector 9  SimpleUnderlayNetwork.globalObserver.globalStatistics  9rateOf1To3  ETV
vector 10  SimpleUnderlayNetwork.globalObserver.globalStatistics  max9RateOf1To3  ETV
vector 11  SimpleUnderlayNetwork.globalObserver.globalStatistics  9rateOf1To4  ETV
vector 12  SimpleUnderlayNetwork.globalObserver.globalStatistics  max9RateOf1To4  ETV
vector 13  SimpleUnderlayNetwork.globalObserver.globalStatistics  9rateOf1To5  ETV
vector 14  SimpleUnderlayNetwork.globalObserver.globalStatistics  max9RateOf1To5  ETV
vector 15  SimpleUnderlayNetwork.globalObserver.globalStatistics  9rateOf1To6  ETV
vector 16  SimpleUnderlayNetwork.globalObserver.globalStatistics  max9RateOf1To6  ETV
vector 17  SimpleUnderlayNetwork.globalObserver.globalStatistics  9rateOf1To7  ETV
vector 18  SimpleUnderlayNetwork.globalObserver.globalStatistics  max9RateOf1To7  ETV
vector 19  SimpleUnderlayNetwork.globalObserver.globalStatistics  9rateOf1To8  ETV
vector 20  SimpleUnderlayNetwork.globalObserver.globalStatistics  max9RateOf1To8  ETV
vector 21  SimpleUnderlayNetwork.globalObserver.globalStatistics  9rateOf1To9  ETV
vector 22  SimpleUnderlayNetwork.globalObserver.globalStatistics  max9RateOf1To9  ETV
vector 23  SimpleUnderlayNetwork.globalObserver.globalStatistics  1rate  ETV
vector 24  SimpleUnderlayNetwork.globalObserver.globalStatistics  max2Rate  ETV
vector 25  SimpleUnderlayNetwork.globalObserver.globalStatistics  "GlobalNodeList: Number of nodes"  ETV
vector 26  SimpleUnderlayNetwork.globalObserver.globalStatistics  "GlobalNodeList: Number of bootstrapped malicious nodes"  ETV
1	4468628	118	90471
1	4516548	119	92591
1	4563936	120	90948
1	4611880	121	93280
1	4659334	122	90736
1	4707104	123	92697
1	4754811	124	92220
1	4802256	125	90895
1	4850047	126	92326
1	4897751	127	92061
1	4945363	128	90736
1	4992618	129	91160
1	5040736	130	93333
1	5087877	131	90100
1	5135940	132	93174
1	5183547	133	91743
1	5231037	134	91478
1	5278862	135	92114
1	5326244	136	90789
1	5374091	137	93015
1	5421549	138	91955
1	5469021	139	90789
1	5516650	140	92008
1	5564493	141	92485
1	5611862	142	90312
1	5659738	143	93598
1	5707152	144	90471
1	5754734	145	92432
1	5802373	146	91849
1	5849936	147	91319
1	5897601	148	91849
1	5945321	149	92644
1	5993083	150	91425
1	6040775	151	92962
1	6088070	152	90153
1	6135330	153	89941
1	6183424	154	93969
1	6230961	155	91531
1	6278446	156	91955
1	6326449	157	92591
1	6373870	158	91531
1	6421236	159	91160
1	6469232	160	92432
1	6517058	161	92962
1	6564973	162	92432
1	6612234	163	90895
1	6660189	164	92432
1	6707783	165	91531
1	6755491	166	92591
1	6802766	167	90683
1	6850767	168	92697
1	6898300	169	93015
1	6945953	170	90736
1	6993671	171	91690
1	7041549	172	93068
1	7089319	173	92697
1	7136958	174	91478
1	7184602	175	91743
1	7232320	176	91584
1	7280116	177	93174
1	7327756	178	91372
1	7375523	179	91425
1	7423107	180	93545
1	7470718	181	92008
1	7518502	182	90471
1	7566255	183	93439
1	7614276	184	91849
1	7661766	185	91690
1	7709091	186	92220
1	7756509	187	91001
1	7804368	188	92167
1	7851988	189	92220
1	7900120	190	92432
1	7947479	191	91796
1	7995128	192	91425
1	8042645	193	91637
1	8090526	194	92167
1	8138130	195	92061
1	8185428	196	91213
1	8233273	197	92220
1	8280841	198	91107
1	8328443	199	91266
1	8376114	200	92909
1	8423584	201	91425
1	8471397	202	92167
1	8518706	203	90895
1	8566703	204	93121
1	8614125	205	91584
1	8661874	206	91743
1	8709754	207	92379
1	8757245	208	92432
1	8805080	209	91584
1	8852615	210	91584
1	8900447	211	92538
1	8947466	212	90471
1	8995148	213	91796
1	9043149	214	92962
1	9090464	215	91107
1	9137997	216	92061
1	9185751	217	91319
1	9233165	218	91849
1	9280720	219	92114
1	9328180	220	90948
1	9375741	221	91213
1	9423694	222	93121
1	9471459	223	92273
1	9519031	224	92008
1	9566658	225	91690
1	9614081	226	91955
1	9661693	227	91425
1	9709005	228	92061
1	9756734	229	92061
1	9804089	230	90948
1	9851927	231	92485
1	9899863	232	92697
1	9947186	233	90312
1	9994519	234	91690
1	10042115	235	91902
1	10089865	236	92750
1	10137646	237	92008
1	10185208	238	91001
1	10232775	239	91637
1	10280452	240	92750
1	10327884	241	92538
1	10375662	242	91054
1	10423571	243	92432
1	10471098	244	92644
1	10518755	245	90948
1	10566078	246	91425
1	10613885	247	92326
1	10662233	248	94976
1	10710227	249	92644
1	10756831	250	88086
1	10805012	251	93598
1	10852411	252	91107
1	10900415	253	92803
1	10947603	254	90047
1	10995451	255	93333
1	11043039	256	91266
1	11090805	257	92485
1	11137960	258	90047
1	11185859	259	93386
1	11233427	260	91266
1	11281318	261	92750
1	11328796	262	91637
1	11376920	263	93015
1	11424324	264	90948
1	11472130	265	93121
1	11520111	266	92432
1	11567449	267	90524
1	11615048	268	92114
1	11662858	269	92538
1	11710382	270	91478
1	11757986	271	91902
1	11805736	272	92061
1	11853696	273	92962
1	11900964	274	90842
1	11948075	275	91054
1	11996109	276	92644
1	12043743	277	92432
1	12091571	278	92326
1	12139058	279	91690
1	12186471	280	91372
1	12233896	281	90524
1	12281489	282	91796
1	12329451	283	93492
1	12376940	284	90736
1	12424745	285	92326
1	12472162	286	91690
1	12519861	287	92273
1	12567379	288	91637
1	12614924	289	91266
1	12662710	290	91796
1	12710558	291	92379
1	12757798	292	92326
1	12805868	293	91372
1	12852838	294	92167
1	12900832	295	91584
1	12948319	296	91478
1	12995723	297	91955
1	13043487	298	92379
1	13090999	299	91425
1	13138688	300	91849
1	13186332	301	92220
1	13234116	302	91690
1	13281579	303	91372
1	13329291	304	92750
1	13377039	305	92114
1	13424970	306	92856
1	13472373	307	91372
1	13520149	308	92326
1	13567502	309	90259
1	13615310	310	92909
1	13663112	311	92114
1	13710330	312	91425
1	13758001	313	91637
1	13805730	314	92326
1	13853300	315	91584
1	13901167	316	92167
1	13948572	317	91849
1	13996308	318	92114
1	14044086	319	92485
1	14091997	320	92750
1	14139446	321	90789
1	14187179	322	91796
1	14235029	323	92644
1	14282694	324	91637
1	14330424	325	92856
1	14378090	326	92379
1	14425741	327	90736
1	14473653	328	93174
1	14521380	329	91584
1	14569417	330	93068
1	14616929	331	91637
1	14664469	332	91054
1	14712351	333	92697
1	14759715	334	91319
1	14807137	335	91372
1	14855160	336	92909
1	14902408	337	90948
1	14949881	338	91584
1	14998018	339	92697
1	15045563	340	91637
1	15092957	341	91743
1	15141103	342	93386
1	15188632	343	90789
1	15236777	344	93386
1	15284112	345	91266
1	15331799	346	91637
1	15379054	347	91160
1	15427160	348	92326
1	15474399	349	90683
1	15522063	350	92061
1	15569742	351	93015
1	15617542	352	92856
1	15664876	353	90577
1	15712349	354	91849
1	15759880	355	90842
1	15807900	356	92008
1	15855190	357	91584
1	15903120	358	92273
1	15951119	359	93015
1	15998500	360	91213
1	16046291	361	92220
1	16093920	362	92167
1	16141646	363	91849
1	16189689	364	93810
1	16237027	365	90206
1	16284898	366	92114
1	16332486	367	92485
1	16379728	368	89623
1	16427654	369	93757
1	16475229	370	92061
1	16523269	371	91478
1	16570374	372	90683
1	16618092	373	91372
1	16665742	374	93015
1	16713414	375	91160
1	16761198	376	92061
1	16808667	377	92220
1	16856300	378	91849
1	16903937	379	92008
1	16951856	380	91849
1	16999915	381	93121
1	17047742	382	92697
1	17095485	383	92591
1	17143188	384	91054
1	17191137	385	93280
1	17239322	386	92697
1	17286489	387	91637
1	17334008	388	90524
1	17381532	389	91743
1	17429117	390	91849
1	17476979	391	92061
1	17524782	392	92273
1	17572747	393	93439
1	17620737	394	91796
1	17668352	395	91637
1	17716127	396	93068
1	17764020	397	92326
1	17811213	398	89994
1	17858652	399	91743
1	17906466	400	91743
1	17954136	401	92803
1	18001885	402	91478
1	18049202	403	91425
1	18096860	404	91584
1	18144928	405	92167
1	18192628	406	92803
1	18239967	407	90683
1	18287705	408	91849
1	18336037	409	93386
1	18383332	410	90789
1	18431244	411	92114
1	18478673	412	92061
1	18526794	413	93068
1	18574172	414	91425
1	18621981	415	91160
1	18669497	416	91849
1	18717336	417	92697
1	18765220	418	91531
1	18812426	419	90683
1	18860366	420	92856
1	18908057	421	92273
1	18955791	422	92379
1	19004008	423	93333
1	19051279	424	90789
1	19099038	425	92538
1	19146755	426	92326
1	19194810	427	92644
1	19242472	428	92167
1	19289826	429	90259
1	19337834	430	93757
1	19385622	431	91372
1	19432746	432	90683
1	19480669	433	93121
1	19528114	434	91319
1	19575768	435	90789
1	19623194	436	92273
1	19670791	437	91266
1	19718471	438	91955
1	19766435	439	92644
1	19813825	440	90206
1	19861646	441	93598
1	19909487	442	91531
1	19957336	443	92538
1	20005256	444	92856
1	20052618	445	90630
1	20100547	446	93492
1	20147814	447	90524
1	20195633	448	92591
1	20243254	449	91001
1	20291240	450	93863
1	20338904	451	91319
1	20386781	452	92591
1	20434542	453	92379
1	20482364	454	92856
1	20529916	455	90736
1	20577723	456	91796
1	20625446	457	94446
1	20673370	458	91107
1	20720919	459	92326
1	20769033	460	92538
1	20816741	461	91637
1	20864829	462	92856
1	20912231	463	91796
1	20959932	464	91531
1	21007590	465	92061
1	21055582	466	92432
1	21103343	467	91478
1	21150743	468	91796
1	21198527	469	92432
1	21246133	470	91054
1	21294067	471	93439
1	21342252	472	92008
1	21389537	473	91372
1	21437376	474	92220
1	21485253	475	93227
1	21532808	476	91054
1	21580616	477	92644
1	21628450	478	91372
1	21675936	479	92061
1	21723781	480	93280
1	21771514	481	89888
1	21819056	482	93810
1	21866730	483	91160
1	21914368	484	91213
1	21962257	485	92591
1	22009834	486	91372
1	22057552	487	92644
1	22105467	488	91372
1	22152836	489	91796
1	22200485	490	91054
1	22248171	491	93333
1	22295500	492	89358
1	22343556	493	93810
1	22391123	494	90789
1	22438585	495	92909
1	22486205	496	90577
1	22534265	497	93227
1	22581405	498	89994
1	22629200	499	93227
1	22676743	500	91425
1	22724775	501	92803
1	22772274	502	91054
1	22820279	503	92591
1	22867564	504	90365
1	22915405	505	93651
1	22963328	506	92538
1	23011225	507	91955
1	23058849	508	91584
1	23106457	509	91849
1	23154750	510	93651
1	23202029	511	91054
1	23250360	512	92485
1	23297761	513	91902
1	23345250	514	91266
1	23393420	515	93863
1	23441440	516	92644
1	23488600	517	90471
1	23536488	518	91743
1	23584008	519	91849
1	23631865	520	91902
1	23679716	521	93545
1	23727485	522	91902
1	23775117	523	90736
1	23822543	524	92326
1	23870239	525	91584
1	23918256	526	92697
1	23965946	527	91637
1	24013493	528	91849
1	24061240	529	91849
1	24108991	530	92644
1	24156819	531	92326
1	24204515	532	92538
1	24252507	533	91902
1	24299909	534	91319
1	24347477	535	92326
1	24394921	536	90842
1	24442523	537	92326
1	24490537	538	92591
1	24537903	539	91213
1	24585492	540	91054
1	24633135	541	92432
1	24680711	542	91372
1	24728823	543	93015
1	24776393	544	91531
1	24824271	545	93068
1	24872051	546	91054
1	24919776	547	92485
1	24967819	548	92909
1	25015260	549	91425
1	25063040	550	91160
1	25111129	551	93863
1	25158856	552	91266
1	25206853	553	92644
1	25254370	554	92167
1	25302270	555	92644
1	25349923	556	91849
1	25398039	557	92591
1	25445313	558	90683
1	25493093	559	92697
1	25541214	560	92962
1	25588567	561	91425
1	25636571	562	93333
1	25683994	563	90471
1	25731778	564	91319
1	25779582	565	92750
1	25827169	566	91743
1	25874739	567	92326
1	25922382	568	91478
1	25970047	569	92220
1	26017864	570	92061
1	26065436	571	92803
1	26113297	572	91478
1	26161185	573	92273
1	26208519	574	90789
1	26256115	575	91160
1	26303778	576	92909
1	26351565	577	92379
1	26399337	578	92379
1	26447271	579	91054
1	26494904	580	93121
1	26542747	581	93068
1	26590586	582	91902
1	26638274	583	91372
1	26685912	584	91902
1	26733062	585	90312
1	26780679	586	91266
1	26828941	587	93492
1	26876100	588	91107
1	26923990	589	91955
1	26971432	590	91054
1	27019244	591	92538
1	27067056	592	92962
1	27115029	593	92061
1	27162574	594	91743
1	27210294	595	92750
1	27257756	596	89782
1	27305847	597	93598
1	27353146	598	91425
1	27400621	599	90047
1	27448913	600	94287
1	27496290	601	90524
1	27543952	602	91955
1	27591927	603	93121
1	27639799	604	92008
1	27686754	605	90630
1	27734360	606	91372
1	27782074	607	92008
1	27829763	608	91372
1	27877343	609	92114
1	27925598	610	94446
1	27972899	611	90206
1	28020837	612	92485
1	28068540	613	92432
1	28116689	614	92485
1	28163929	615	91902
1	28211883	616	92008
1	28259557	617	92008
1	28306778	618	91054
1	28354642	619	92644
1	28402296	620	91266
1	28450165	621	92485
1	28497713	622	90683
1	28545576	623	92909
1	28592888	624	90736
1	28640387	625	91743
1	28688638	626	93121
1	28736077	627	90842
1	28783495	628	91796
1	28831340	629	92114
1	28879010	630	92273
1	28926460	631	89252
1	28974119	632	92909
1	29021857	633	92803
1	29069699	634	92167
1	29117012	635	90471
1	29165224	636	92750
1	29212926	637	92803
1	29260920	638	93068
1	29308433	639	91902
1	29356311	640	92114
1	29404094	641	92167
1	29451719	642	91637
1	29499427	643	91054
1	29547011	644	92803
1	29594858	645	92697
1	29642582	646	91319
1	29690275	647	92750
1	29738325	648	92962
1	29786230	649	91531
1	29833785	650	91213
1	29881657	651	92644
1	29929454	652	93280
1	29977087	653	91107
1	30024965	654	92379
1	30072699	655	91584
1	30120437	656	92538
1	30168211	657	92803
1	30215830	658	90842
1	30263981	659	93704
1	30311624	660	92061
1	30359291	661	91425
1	30407098	662	92644
1	30454763	663	91849
1	30502607	664	92273
1	30550421	665	92644
1	30598729	666	92379
1	30645899	667	90577
1	30693953	668	94181
1	30742152	669	92326
1	30789326	670	90577
1	30837017	671	90736
1	30885211	672	94552
1	30932144	673	89835
1	30980256	674	92697
1	31027830	675	92697
1	31076204	676	93015
1	31123746	677	91531
1	31171689	678	92803
1	31219306	679	91584
1	31267478	680	93174
1	31315060	681	91319
1	31362801	682	92061
1	31410566	683	90789
1	31458047	684	92538
1	31505892	685	92750
1	31553279	686	91425
1	31601206	687	92591
1	31648935	688	92432
1	31697068	689	92485
1	31744705	690	91849
1	31792702	691	92326
1	31840139	692	92538
1	31888216	693	92220
1	31935865	694	91690
1	31983653	695	92326
1	32031621	696	93386
1	32079425	697	91796
1	32127073	698	91425
1	32174648	699	92591
1	32222127	700	91478
1	32269634	701	90206
1	32317752	702	92273
1	32365511	703	92697
1	32413409	704	94340
1	32461032	705	90577
1	32508887	706	92432
1	32556293	707	91796
1	32604259	708	92114
1	32651862	709	91637
1	32699085	710	89623
1	32746803	711	92803
1	32794741	712	92432
1	32842176	713	91955
1	32890227	714	91160
1	32938140	715	93545
1	32985572	716	91372
1	33033382	717	90842
1	33080947	718	92538
1	33128602	719	91955
1	33176480	720	91372
1	33224523	721	93227
1	33272216	722	91584
1	33319479	723	91266
1	33367264	724	91902
1	33415326	725	92538
1	33463102	726	93333
1	33510637	727	90683
1	33558571	728	93068
1	33606218	729	91637
1	33654143	730	92432
1	33701706	731	91955
1	33749537	732	92167
1	33797054	733	91743
1	33845119	734	92485
1	33892547	735	91690
1	33940172	736	90630
1	33988120	737	93598
1	34035711	738	91690
1	34083459	739	92538
1	34131324	740	92697
1	34179141	741	90630
1	34226451	742	92379
1	34274372	743	91531
1	34321529	744	91478
1	34369350	745	91584
1	34417302	746	92538
1	34465182	747	92538
1	34512923	748	91955
1	34560452	749	91637
1	34607818	750	91213
1	34655450	751	91213
1	34703078	752	92220
1	34751011	753	93492
1	34798439	754	90577
1	34846487	755	93068
1	34894029	756	91213
1	34941842	757	92432
1	34989842	758	92485
1	35036995	759	90312
1	35084752	760	92379
1	35132214	761	91160
1	35180289	762	93068
1	35227405	763	91001
1	35275641	764	93015
1	35323355	765	92008
1	35370684	766	91266
1	35418631	767	92167
1	35466323	768	93174
1	35514204	769	91478
1	35562059	770	92220
1	35609753	771	92061
1	35657005	772	91001
1	35705258	773	93068
1	35752468	774	90736
1	35800588	775	93068
1	35847995	776	90948
1	35895782	777	92962
1	35943362	778	91796
1	35990704	779	90895
1	36038485	780	91902
1	36085884	781	91849
1	36133707	782	91478
1	36181403	783	92220
1	36229094	784	92061
1	36276709	785	91796
1	36324088	786	91266
1	36371394	787	91001
1	36419334	788	92008
1	36466780	789	90948
1	36514881	790	93333
1	36561850	791	89994
1	36609945	792	93333
1	36657262	793	90418
1	36705422	794	92432
1	36753366	795	93545
1	36800758	796	91107
1	36848399	797	92379
1	36896537	798	92962
1	36944207	799	90948
1	36991972	800	93333
1	37039397	801	91213
1	37087461	802	92644
1	37134790	803	90789
1	37182748	804	92909
1	37229659	805	90630
1	37277470	806	91425
1	37324910	807	91531
1	37373002	808	93068
1	37420670	809	91955
1	37468118	810	90418
1	37515741	811	92326
1	37562935	812	90047
1	37611063	813	93863
1	37658976	814	92061
1	37706267	815	91054
1	37754344	816	94128
1	37801772	817	91160
1	37849704	818	91955
1	37897692	819	92803
1	37945395	820	91743
1	37993102	821	92750
1	38041026	822	91690
1	38088081	823	90630
1	38135888	824	93068
1	38183563	825	91902
1	38231287	826	91637
1	38278386	827	90471
1	38325848	828	91584
1	38373692	829	91584
1	38421090	830	92220
1	38468746	831	91955
1	38516194	832	90312
1	38563993	833	92644
1	38611733	834	92379
1	38659026	835	91001
1	38707080	836	92591
1	38754869	837	92432
1	38802132	838	91213
1	38850236	839	92591
1	38897910	840	91478
1	38945698	841	92750
1	38993034	842	90577
1	39040934	843	92538
1	39088699	844	91849
1	39136221	845	91319
1	39183913	846	92326
1	39231443	847	91001
1	39278826	848	92379
1	39326224	849	90365
1	39373933	850	91743
1	39421424	851	92379
1	39469409	852	92273
1	39516845	853	91213
1	39564465	854	92273
1	39611723	855	90895
1	39659920	856	93757
1	39707210	857	90100
1	39755127	858	92856
1	39802731	859	91584
1	39850273	860	91955
1	39898076	861	92273
1	39945725	862	92273
1	39993696	863	91902
1	40041562	864	92962
1	40088648	865	90736
1	40136505	866	92485
1	40184412	867	92750
1	40231692	868	90577
1	40279540	869	92379
1	40327487	870	93174
1	40374822	871	90948
1	40422006	872	90100
1	40469967	873	93280
1	40517511	874	90895
1	40565126	875	93068
1	40613043	876	92379
1	40660503	877	90153
1	40708015	878	92962
1	40756193	879	93227
1	40803935	880	91637
1	40851028	881	90524
1	40898980	882	92326
1	40946853	883	91637
1	40994019	884	91266
1	41042409	885	94287
1	41089781	886	90524
1	41137179	887	91690
1	41185010	888	92538
1	41232970	889	92326
1	41280295	890	91743
1	41328317	891	91584
1	41375287	892	90895
1	41423292	893	92591
1	41470892	894	91690
1	41518464	895	91425
1	41566385	896	93015
1	41613813	897	90577
1	41661635	898	92432
1	41709213	899	91690
1	41756719	900	91796
1	41804794	901	92697
1	41852163	902	91425
1	41899898	903	92856
1	41947428	904	91054
1	41995082	905	92061
1	42042297	906	90418
1	42090611	907	93863
1	42137861	908	90312
1	42185702	909	91902
1	42233177	910	92697
1	42280840	911	90418
1	42328520	912	92591
1	42376451	913	92538
1	42423870	914	91478
1	42471811	915	93492
1	42519475	916	91584
1	42567105	917	92167
1	42615211	918	92697
1	42662662	919	91849
1	42710464	920	90789
1	42757928	921	92697
1	42805728	922	91849
1	42853723	923	92167
1	42901348	924	91531
1	42948966	925	92273
1	42996951	926	92220
1	43044833	927	92432
1	43092324	928	91796
1	43140364	929	92485
1	43187565	930	91107
1	43235437	931	93333
1	43283826	932	93015
1	43331758	933	92167
1	43379124	934	91372
1	43426873	935	93227
1	43474581	936	91478
1	43522253	937	91054
1	43569640	938	90630
1	43617509	939	92962
1	43665288	940	91584
1	43713163	941	93545
1	43760952	942	93068
1	43808816	943	92008
1	43856295	944	91425
1	43903830	945	91107
1	43951419	946	91849
1	43999441	947	93439
1	44047078	948	90948
1	44094611	949	91054
1	44142201	950	92803
1	44189899	951	92167
1	44237484	952	91001
1	44285744	953	92909
1	44332979	954	91213
1	44381037	955	93969
1	44428646	956	91266
1	44476509	957	93333
1	44524559	958	92273
1	44571770	959	90259
1	44619917	960	93545
1	44667478	961	91425
1	44715215	962	91584
1	44762737	963	92750
1	44810030	964	90842
1	44857916	965	92803
1	44905577	966	92114
1	44953410	967	91319
1	45001100	968	91160
1	45048552	969	91743
1	45096498	970	93015
1	45143884	971	90577
1	45191696	972	93227
1	45239538	973	91584
1	45287038	974	91584
1	45334420	975	90948
1	45382348	976	93068
1	45430187	977	92008
1	45477550	978	91425
1	45525393	979	92538
1	45573282	980	92538
1	45621302	981	92273
1	45668745	982	91213
1	45716268	983	91107
1	45764146	984	92962
1	45811851	985	91849
1	45859238	986	90471
1	45906822	987	93333
1	45954759	988	91796
1	46002311	989	92008
1	46050034	990	92485
1	46097492	991	90842
1	46145165	992	91425
1	46192897	993	92909
1	46240547	994	92432
1	46288394	995	91213
1	46336134	996	92538
1	46384203	997	92538
1	46431918	998	92326
1	46479393	999	91478
1	46527111	1000	92485
1	46574761	1001	92220
1	46622754	1002	92644
1	46670313	1003	91319
1	46717754	1004	90842
1	46765443	1005	92061
1	46813058	1006	92379
1	46860650	1007	90577
1	46908902	1008	93280
1	46956524	1009	91266
1	47004132	1010	93015
1	47051603	1011	90895
1	47099020	1012	91054
1	47146772	1013	93015
1	47194097	1014	90630
1	47242184	1015	92803
1	47289840	1016	92432
1	47337876	1017	92803
1	47385512	1018	91213
1	47433216	1019	92644
1	47481218	1020	93068
1	47528804	1021	91054
1	47576165	1022	92061
1	47623696	1023	91001
1	47671545	1024	92591
1	47719163	1025	91319
1	47767006	1026	91902
1	47814773	1027	92008
1	47862766	1028	93598
1	47910551	1029	92273
1	47957937	1030	91054
1	48005883	1031	91849
1	48053479	1032	92114
1	48101233	1033	91266
1	48149099	1034	93121
1	48196422	1035	90895
1	48244059	1036	91584
1	48291520	1037	91266
1	48339101	1038	92114
1	48387026	1039	92273
1	48434794	1040	92061
1	48482253	1041	91266
1	48529899	1042	92008
1	48577843	1043	92432
1	48625649	1044	91796
1	48673055	1045	91743
1	48721102	1046	91902
1	48768801	1047	92856
1	48816158	1048	90736
1	48864175	1049	93121
1	48911977	1050	92379
1	48959744	1051	91213
1	49007154	1052	92273
1	49055012	1053	91902
1	49102554	1054	91637
1	49150020	1055	91796
1	49198167	1056	93174
1	49246015	1057	91584
1	49293970	1058	93280
1	49341213	1059	89941
1	49389530	1060	94658
1	49436608	1061	90047
1	49484647	1062	91849
1	49532017	1063	91266
1	49579957	1064	93068
1	49627758	1065	92008
1	49675697	1066	93121
1	49723044	1067	90312
1	49770646	1068	92432
1	49818385	1069	92114
1	49866623	1070	93174
1	49914048	1071	90365
1	49961796	1072	92750
1	50009793	1073	92220
1	50057449	1074	90895
1	50105267	1075	93174
1	50152584	1076	90842
1	50200624	1077	92326
1	50248291	1078	92485
1	50296251	1079	92591
1	50344368	1080	92485
1	50391837	1081	91213
1	50439524	1082	92644
1	50487385	1083	91849
1	50535404	1084	93068
1	50582760	1085	90736
1	50630766	1086	92485
1	50678117	1087	91955
1	50725802	1088	91266
1	50773731	1089	92432
1	50821169	1090	91160
1	50868966	1091	92803
1	50916754	1092	91796
1	50964631	1093	93280
1	51012124	1094	90842
1	51060027	1095	92485
1	51108415	1096	93227
1	51155982	1097	92061
1	51203576	1098	91054
1	51251325	1099	92644
1	51299290	1100	93015
1	51347196	1101	92326
1	51394772	1102	90842
1	51442275	1103	91849
1	51490566	1104	93121
1	51538361	1105	92273
1	51586276	1106	92591
1	51633581	1107	91160
1	51680977	1108	90895
1	51728850	1109	92750
1	51776817	1110	92326
1	51824729	1111	92326
1	51872112	1112	91584
1	51919988	1113	92750
1	51967714	1114	91743
1	52015418	1115	92008
1	52063291	1116	92962
1	52111165	1117	91849
1	52158864	1118	91743
1	52206604	1119	91849
1	52254315	1120	92962
1	52302604	1121	92273
1	52350335	1122	92856
1	52398097	1123	91213
1	52446395	1124	93333
1	52493372	1125	91001
1	52541662	1126	92962
1	52589676	1127	92644
1	52636733	1128	90259
1	52684936	1129	93651
1	52732472	1130	91160
1	52780807	1131	94022
1	52828308	1132	91266
1	52876088	1133	91796
1	52923789	1134	91425
1	52971658	1135	92962
1	53019109	1136	92061
1	53066838	1137	91266
1	53114366	1138	91584
1	53162094	1139	92220
1	53210067	1140	92962
1	53257931	1141	92008
1	53305603	1142	92538
1	53353192	1143	90630
1	53401322	1144	94075
1	53449194	1145	92167
1	53497181	1146	91796
1	53544858	1147	92114
1	53592186	1148	92114
1	53640008	1149	91902
1	53687371	1150	90418
1	53735295	1151	92909
1	53782905	1152	90100
1	53830938	1153	93227
1	53878505	1154	91478
1	53926632	1155	93121
1	53974218	1156	92591
1	54021773	1157	91266
1	54069470	1158	91690
1	54116931	1159	91796
1	54164541	1160	91160
1	54212071	1161	92220
1	54260493	1162	93439
1	54308282	1163	92008
1	54355996	1164	92909
1	54403647	1165	90524
1	54451565	1166	93492
1	54499159	1167	91531
1	54546908	1168	91584
1	54594623	1169	91054
1	54642333	1170	93227
1	54690100	1171	91213
1	54738082	1172	93280
1	54785667	1173	91425
1	54833686	1174	93015
1	54880938	1175	91001
1	54928497	1176	90842
1	54976343	1177	93068
1	55023879	1178	90736
1	55071005	1179	91690
1	55119005	1180	91531
1	55166974	1181	92008
1	55214677	1182	93174
1	55262569	1183	91584
1	55309809	1184	91637
1	55357807	1185	91743
1	55405939	1186	92856
1	55453600	1187	92697
1	55501520	1188	91955
1	55549261	1189	92909
1	55597025	1190	92485
1	55644935	1191	92167
1	55692778	1192	91955
1	55740226	1193	91213
1	55788211	1194	93810
1	55835905	1195	89888
1	55883382	1196	92326
1	55931320	1197	92591
1	55978918	1198	91531
1	56026727	1199	91743
1	56074489	1200	92167
1	56121983	1201	90683
1	56170231	1202	93969
1	56217705	1203	91849
1	56265390	1204	90577
1	56313038	1205	92485
1	56360738	1206	92114
1	56408633	1207	91160
1	56456349	1208	92909
1	56503861	1209	92220
1	56551443	1210	90683
1	56599320	1211	93545
1	56647211	1212	91637
1	56694993	1213	91319
1	56742562	1214	92273
1	56790246	1215	91107
1	56838400	1216	93651
1	56886185	1217	90948
1	56933895	1218	92273
1	56981814	1219	93810
1	57029427	1220	91054
1	57077427	1221	92326
1	57125480	1222	93333
1	57172954	1223	90100
1	57220727	1224	93015
1	57268608	1225	92273
1	57316443	1226	92167
1	57363936	1227	91637
1	57412329	1228	93545
1	57459915	1229	91054
1	57507639	1230	92485
1	57555281	1231	92856
1	57603292	1232	91478
1	57651284	1233	92591
1	57699013	1234	93068
1	57747045	1235	92856
1	57794999	1236	92273
1	57842615	1237	91160
1	57890147	1238	92538
1	57938134	1239	92008
1	57986002	1240	92432
1	58033928	1241	91955
1	58081387	1242	91796
1	58129442	1243	93227
1	58176994	1244	90948
1	58224346	1245	90153
1	58272354	1246	94340
1	58320358	1247	91213
1	58367942	1248	91743
1	58415701	1249	91266
1	58463163	1250	93227
1	58511067	1251	91531
1	58558543	1252	91319
1	58606188	1253	92644
1	58654180	1254	92485
1	58702027	1255	92220
1	58749809	1256	91796
1	58797781	1257	93863
1	58845458	1258	90789
1	58893160	1259	92909
1	58940745	1260	90524
1	58988623	1261	92379
1	59036349	1262	92538
1	59083976	1263	91690
1	59131235	1264	91107
1	59178877	1265	92061
1	59226506	1266	90948
1	59274138	1267	92008
1	59322092	1268	93121
1	59370304	1269	92591
1	59417830	1270	92326
1	59466021	1271	92750
1	59513469	1272	91584
1	59561105	1273	91213
1	59608965	1274	92432
1	59656582	1275	91902
1	59704499	1276	92750
1	59752396	1277	92167
1	59799560	1278	90365
1	59847381	1279	92326
1	59895168	1280	91796
1	59943088	1281	92273
1	59991077	1282	93810
1	60038162	1283	89888
1	60086466	1284	93598
1	60133890	1285	90630
1	60181577	1286	92379
1	60229646	1287	91796
1	60277048	1288	91902
1	60324534	1289	90948
1	60372612	1290	93121
1	60420450	1291	93121
1	60468073	1292	90736
1	60515585	1293	91160
1	60563496	1294	94181
1	60611413	1295	91902
1	60659028	1296	91107
1	60706820	1297	92379
1	60754513	1298	92750
1	60802234	1299	91531
1	60849852	1300	90736
1	60897345	1301	92379
1	60945172	1302	92167
1	60992926	1303	91319
1	61040627	1304	92008
1	61087879	1305	90736
1	61135889	1306	92326
1	61183494	1307	92591
1	61231167	1308	92591
1	61279352	1309	91637
1	61327102	1310	92591
1	61374685	1311	91796
1	61422335	1312	91531
1	61470315	1313	92538
1	61518127	1314	92326
1	61565805	1315	92273
1	61613796	1316	93280
1	61661594	1317	91372
1	61709513	1318	92273
1	61757150	1319	92220
1	61805315	1320	92485
1	61852674	1321	90789
1	61900118	1322	91584
1	61947726	1323	91584
1	61995601	1324	92008
1	62043087	1325	92326
1	62091167	1326	92697
1	62138921	1327	92167
1	62186740	1328	91372
1	62234320	1329	91319
1	62282124	1330	92750
1	62329475	1331	90948
1	62376881	1332	91266
1	62424782	1333	92167
1	62472203	1334	91902
1	62520209	1335	93015
1	62567948	1336	91266