version 2
run QLearnCC-3-20100707-11:29:39-5328
attr alpha 0.1
attr configname QLearnCC
attr datetime 20100707-11:29:39
attr epsilon 0.1
attr experiment QLearnCC
attr inifile D:/Developement/Oversim2/multic/simulations/omnetpp.ini
attr iterationvars "$alpha=0.1, $lamda=1.0, $reinfup=0.4, $epsilon=0.1"
attr iterationvars2 "$alpha=0.1, $lamda=1.0, $reinfup=0.4, $epsilon=0.1, $repetition=0"
attr lamda 1.0
attr measurement "$alpha=0.1, $lamda=1.0, $reinfup=0.4, $epsilon=0.1"
attr network oversim.underlay.simpleunderlay.SimpleUnderlayNetwork
attr processid 5328
attr reinfup 0.4
attr repetition 0
attr replication #0
attr resultdir results
attr runnumber 3
attr seedset 3

vector 1  SimpleUnderlayNetwork.globalObserver.globalStatistics  incoming_bytes  ETV
vector 2  SimpleUnderlayNetwork.globalObserver.globalStatistics  drops  ETV
vector 3  SimpleUnderlayNetwork.globalObserver.globalStatistics  9rateOf1To0  ETV
vector 4  SimpleUnderlayNetwork.globalObserver.globalStatistics  max9RateOf1To0  ETV
vector 5  SimpleUnderlayNetwork.globalObserver.globalStatistics  9rateOf1To1  ETV
vector 6  SimpleUnderlayNetwork.globalObserver.globalStatistics  max9RateOf1To1  ETV
vector 7  SimpleUnderlayNetwork.globalObserver.globalStatistics  9rateOf1To2  ETV
vector 8  SimpleUnderlayNetwork.globalObserver.globalStatistics  max9RateOf1To2  ETV
vector 9  SimpleUnderlayNetwork.globalObserver.globalStatistics  9rateOf1To3  ETV
vector 10  SimpleUnderlayNetwork.globalObserver.globalStatistics  max9RateOf1To3  ETV
vector 11  SimpleUnderlayNetwork.globalObserver.globalStatistics  9rateOf1To4  ETV
vector 12  SimpleUnderlayNetwork.globalObserver.globalStatistics  max9RateOf1To4  ETV
vector 13  SimpleUnderlayNetwork.globalObserver.globalStatistics  9rateOf1To5  ETV
vector 14  SimpleUnderlayNetwork.globalObserver.globalStatistics  max9RateOf1To5  ETV
vector 15  SimpleUnderlayNetwork.globalObserver.globalStatistics  9rateOf1To6  ETV
vector 16  SimpleUnderlayNetwork.globalObserver.globalStatistics  max9RateOf1To6  ETV
vector 17  SimpleUnderlayNetwork.globalObserver.globalStatistics  9rateOf1To7  ETV
vector 18  SimpleUnderlayNetwork.globalObserver.globalStatistics  max9RateOf1To7  ETV
vector 19  SimpleUnderlayNetwork.globalObserver.globalStatistics  9rateOf1To8  ETV
vector 20  SimpleUnderlayNetwork.globalObserver.globalStatistics  max9RateOf1To8  ETV
vector 21  SimpleUnderlayNetwork.globalObserver.globalStatistics  9rateOf1To9  ETV
vector 22  SimpleUnderlayNetwork.globalObserver.globalStatistics  max9RateOf1To9  ETV
vector 23  SimpleUnderlayNetwork.globalObserver.globalStatistics  1rate  ETV
vector 24  SimpleUnderlayNetwork.globalObserver.globalStatistics  max2Rate  ETV
vector 25  SimpleUnderlayNetwork.globalObserver.globalStatistics  "GlobalNodeList: Number of nodes"  ETV
vector 26  SimpleUnderlayNetwork.globalObserver.globalStatistics  "GlobalNodeList: Number of bootstrapped malicious nodes"  ETV
1	4491362	119	91372
1	4539473	120	91902
1	4587427	121	90736
1	4635871	122	92379
1	4684006	123	91319
1	4731971	124	91531
1	4779626	125	89729
1	4828418	126	92697
1	4876024	127	90577
1	4924266	128	91531
1	4972307	129	90471
1	5020633	130	92697
1	5068298	131	89941
1	5116149	132	90577
1	5164603	133	92432
1	5213013	134	91796
1	5260582	135	90365
1	5308842	136	91319
1	5357143	137	92008
1	5405187	138	91372
1	5452990	139	91266
1	5501500	140	91107
1	5549562	141	91478
1	5596928	142	89517
1	5645234	143	92538
1	5693810	144	91796
1	5741709	145	91478
1	5790066	146	92061
1	5838142	147	91902
1	5885727	148	89093
1	5934769	149	94022
1	5982198	150	90206
1	6030506	151	91531
1	6078637	152	91054
1	6126460	153	90895
1	6174685	154	91478
1	6222496	155	91054
1	6270681	156	90736
1	6318209	157	90471
1	6366379	158	91266
1	6414572	159	91001
1	6462410	160	91266
1	6510484	161	91955
1	6558729	162	91690
1	6606652	163	90630
1	6654861	164	91902
1	6702620	165	90047
1	6751291	166	93704
1	6799071	167	90312
1	6847129	168	91690
1	6895069	169	91001
1	6943712	170	92644
1	6991628	171	91478
1	7039956	172	91955
1	7088019	173	91637
1	7135994	174	92061
1	7184382	175	91054
1	7232619	176	92856
1	7280258	177	89305
1	7327982	178	91107
1	7376608	179	92379
1	7424235	180	90100
1	7472710	181	92538
1	7520042	182	89199
1	7568623	183	93598
1	7616382	184	89305
1	7664046	185	91160
1	7712480	186	91425
1	7760128	187	90418
1	7808097	188	91160
1	7856374	189	91955
1	7904015	190	90312
1	7952898	191	93121
1	8000513	192	89464
1	8049140	193	92803
1	8097410	194	91902
1	8145107	195	89305
1	8192865	196	90524
1	8241340	197	91531
1	8288969	198	91690
1	8337121	199	90789
1	8385527	200	91531
1	8433247	201	90948
1	8481581	202	91743
1	8529343	203	89941
1	8577302	204	91637
1	8625134	205	90312
1	8673548	206	92273
1	8721370	207	90312
1	8769558	208	91796
1	8817507	209	90842
1	8865416	210	91213
1	8913352	211	90471
1	8961547	212	91849
1	9009284	213	90153
1	9057486	214	91531
1	9105430	215	90683
1	9153030	216	90312
1	9201755	217	93015
1	9249348	218	90047
1	9297894	219	92485
1	9345638	220	90630
1	9393479	221	90100
1	9441308	222	90736
1	9489539	223	91531
1	9537584	224	91902
1	9585624	225	90789
1	9633130	226	89570
1	9681741	227	93280
1	9729279	228	89782
1	9777601	229	91796
1	9825130	230	90365
1	9873591	231	92114
1	9921282	232	89782
1	9969480	233	91531
1	10017729	234	91955
1	10065631	235	90842
1	10113753	236	91054
1	10162400	237	93280
1	10209788	238	89570
1	10258111	239	92220
1	10305824	240	90630
1	10353787	241	89676
1	10401985	242	92803
1	10450184	243	91160
1	10498615	244	92273
1	10546365	245	91054
1	10594632	246	91796
1	10642456	247	90948
1	10690550	248	91054
1	10738842	249	92114
1	10786430	250	89358
1	10834781	251	92432
1	10882607	252	90524
1	10930989	253	92591
1	10978704	254	90206
1	11026958	255	91478
1	11075356	256	92856
1	11123581	257	91372
1	11171207	258	90100
1	11219527	259	92379
1	11267155	260	90100
1	11315352	261	91425
1	11363932	262	93068
1	11411294	263	89782
1	11459633	264	91107
1	11507621	265	92326
1	11555927	266	91213
1	11603813	267	91478
1	11651444	268	90683
1	11699464	269	91372
1	11747740	270	91054
1	11796135	271	92061
1	11843696	272	90895
1	11892355	273	92432
1	11940285	274	90842
1	11988783	275	92644
1	12036592	276	90524
1	12084578	277	91160
1	12131819	278	88828
1	12179828	279	91266
1	12228782	280	94075
1	12276524	281	89729
1	12324536	282	91531
1	12372503	283	90577
1	12420671	284	91531
1	12468516	285	90842
1	12516715	286	91425
1	12564514	287	90630
1	12612997	288	92591
1	12661239	289	91584
1	12709693	290	92803
1	12757760	291	92008
1	12804903	292	88775
1	12853265	293	91107
1	12900990	294	90577
1	12949154	295	91637
1	12996970	296	90630
1	13045442	297	92485
1	13093032	298	89623
1	13142006	299	93651
1	13189085	300	89040
1	13237717	301	93068
1	13285438	302	90365
1	13333577	303	90418
1	13381628	304	91955
1	13429619	305	91425
1	13478306	306	92644
1	13526271	307	91266
1	13574336	308	90842
1	13622188	309	90577
1	13670183	310	91372
1	13718296	311	91319
1	13766409	312	90842
1	13814359	313	91637
1	13862240	314	90471
1	13910823	315	92803
1	13958875	316	90948
1	14006524	317	90789
1	14054572	318	90842
1	14102591	319	91902
1	14150911	320	91690
1	14198948	321	90630
1	14246964	322	91425
1	14294476	323	90206
1	14342670	324	91531
1	14390243	325	91054
1	14438967	326	92485
1	14487101	327	92061
1	14535037	328	90577
1	14582855	329	90683
1	14630833	330	90948
1	14679304	331	92432
1	14727391	332	91213
1	14775750	333	92220
1	14823517	334	89570
1	14871394	335	91213
1	14920024	336	93015
1	14968079	337	90948
1	15016276	338	91425
1	15063954	339	90418
1	15112596	340	92538
1	15160162	341	90895
1	15208815	342	92008
1	15256739	343	91690
1	15305238	344	91584
1	15352550	345	89729
1	15401505	346	93492
1	15448930	347	90100
1	15497094	348	91425
1	15545559	349	92114
1	15593375	350	90524
1	15641836	351	92644
1	15689744	352	90842
1	15738163	353	92220
1	15786067	354	91637
1	15834601	355	92167
1	15881915	356	89941
1	15931018	357	93757
1	15978813	358	90683
1	16026725	359	90789
1	16075108	360	92379
1	16123276	361	90895
1	16171577	362	92167
1	16219668	363	91743
1	16267286	364	89888
1	16316010	365	93439
1	16364283	366	91372
1	16412615	367	91902
1	16459764	368	88881
1	16508224	369	92485
1	16556440	370	92273
1	16604630	371	91372
1	16652780	372	91584
1	16700468	373	90630
1	16749293	374	92803
1	16796998	375	90789
1	16845196	376	91955
1	16893346	377	91107
1	16941324	378	91001
1	16989528	379	91001
1	17037299	380	91213
1	17085682	381	92220
1	17132810	382	88881
1	17181428	383	93227
1	17229542	384	91054
1	17277697	385	91531
1	17325762	386	91213
1	17373492	387	90206
1	17421177	388	90842
1	17469445	389	91637
1	17516973	390	90365
1	17565072	391	91107
1	17613300	392	92114
1	17660979	393	91107
1	17709637	394	92220
1	17757118	395	89835
1	17805358	396	91319
1	17853320	397	92061
1	17901592	398	91266
1	17949431	399	90842
1	17998024	400	92432
1	18045550	401	90153
1	18093739	402	91849
1	18141774	403	91372
1	18190011	404	91584
1	18238141	405	91213
1	18286331	406	91902
1	18334674	407	91160
1	18381892	408	90471
1	18430441	409	92167
1	18478391	410	90312
1	18526914	411	91637
1	18574449	412	90471
1	18622521	413	91637
1	18670768	414	91478
1	18718231	415	89729
1	18766657	416	92326
1	18814669	417	91478
1	18863114	418	92326
1	18911493	419	92856
1	18959161	420	90577
1	19007719	421	92856
1	19055434	422	89729
1	19104170	423	93174
1	19151534	424	89305
1	19199595	425	91425
1	19247949	426	92644
1	19295496	427	89199
1	19343947	428	92273
1	19392252	429	92379
1	19439889	430	89994
1	19488054	431	91054
1	19535907	432	90895
1	19584248	433	92379
1	19632058	434	90948
1	19680213	435	91054
1	19728622	436	92750
1	19776505	437	91054
1	19824785	438	91425
1	19872468	439	90895
1	19920978	440	91796
1	19969049	441	91319
1	20016823	442	90736
1	20065285	443	92644
1	20113209	444	90948
1	20161257	445	91584
1	20209656	446	92750
1	20257550	447	90630
1	20306251	448	93068
1	20353732	449	89623
1	20401805	450	90630
1	20449528	451	90577
1	20498467	452	93439
1	20546241	453	91425
1	20594431	454	91266
1	20642416	455	91690
1	20690701	456	91372
1	20738173	457	89835
1	20786178	458	90206
1	20834208	459	91213
1	20882874	460	92856
1	20930784	461	91213
1	20978629	462	90524
1	21026524	463	91266
1	21075337	464	92962
1	21123049	465	90524
1	21170640	466	89941
1	21218937	467	91902
1	21267480	468	93439
1	21315295	469	90153
1	21363757	470	92061
1	21411517	471	89835
1	21459684	472	91796
1	21507939	473	91584
1	21555808	474	90789
1	21603907	475	91902
1	21651831	476	90683
1	21700126	477	92167
1	21747991	478	90736
1	21795881	479	90312
1	21843876	480	92273
1	21892103	481	91266
1	21940408	482	91266
1	21988933	483	93121
1	22036145	484	89146
1	22084114	485	90895
1	22132698	486	92485
1	22180518	487	90895
1	22228790	488	91743
1	22276696	489	90736
1	22325132	490	92273
1	22372774	491	90259
1	22421402	492	92379
1	22469085	493	90206
1	22516969	494	91531
1	22565268	495	92273
1	22613325	496	91160
1	22661855	497	91955
1	22709074	498	88828
1	22757265	499	92432
1	22805265	500	89994
1	22853389	501	91849
1	22901905	502	92803
1	22949556	503	89676
1	22998478	504	94234
1	23045966	505	89040
1	23094362	506	92538
1	23142757	507	91955
1	23190262	508	90418
1	23238181	509	91160
1	23287199	510	92962
1	23334748	511	90683
1	23383156	512	92432
1	23431125	513	90736
1	23479405	514	92008
1	23527579	515	92220
1	23575503	516	90630
1	23623367	517	90789
1	23672193	518	93651
1	23719056	519	87344
1	23767774	520	93227
1	23815659	521	90736
1	23863694	522	91637
1	23911877	523	91372
1	23960339	524	92326
1	24008137	525	90789
1	24055749	526	89305
1	24104752	527	94711
1	24153099	528	91372
1	24201114	529	91372
1	24248534	530	89676
1	24296932	531	92326
1	24344916	532	91372
1	24393330	533	90948
1	24441327	534	92644
1	24489136	535	90312
1	24537781	536	93068
1	24586155	537	91690
1	24633796	538	90312
1	24682079	539	91425
1	24730138	540	92008
1	24778134	541	90683
1	24826204	542	92167
1	24874550	543	91743
1	24922290	544	91001
1	24970977	545	91902
1	25019087	546	92273
1	25066998	547	90047
1	25115137	548	91849
1	25163488	549	91849
1	25211442	550	91425
1	25259607	551	91743
1	25307588	552	90736
1	25356116	553	92750
1	25404136	554	91584
1	25452242	555	90895
1	25500410	556	92273
1	25548141	557	89676
1	25596369	558	92697
1	25644265	559	89941
1	25692661	560	92644
1	25740860	561	91849
1	25788712	562	90630
1	25836881	563	91849
1	25884812	564	91107
1	25933522	565	92803
1	25981318	566	90312
1	26029280	567	90418
1	26077448	568	92008
1	26125621	569	91902
1	26173768	570	91160
1	26221767	571	91584
1	26270187	572	92485
1	26318316	573	91213
1	26366272	574	91213
1	26414511	575	90736
1	26462687	576	92061
1	26510991	577	92008
1	26558484	578	89941
1	26606460	579	90524
1	26654476	580	91796
1	26703089	581	92432
1	26751189	582	91796
1	26798862	583	90047
1	26847617	584	93333
1	26895597	585	90206
1	26943603	586	91531
1	26991189	587	90259
1	27039239	588	90047
1	27087014	589	91637
1	27135663	590	92750
1	27183401	591	90365
1	27231620	592	91796
1	27279738	593	91849
1	27327437	594	90047
1	27375967	595	93068
1	27424071	596	92008
1	27471870	597	89782
1	27520130	598	91372
1	27567979	599	90418
1	27616496	600	93492
1	27663767	601	88510
1	27712520	602	92697
1	27760246	603	91319
1	27808756	604	91690
1	27856829	605	91160
1	27904997	606	91213
1	27952767	607	91478
1	28000783	608	91213
1	28049291	609	91637
1	28097071	610	91107
1	28145250	611	90789
1	28193233	612	90948
1	28241462	613	92326
1	28289388	614	90047
1	28337257	615	91213
1	28385793	616	92856
1	28433809	617	90789
1	28481905	618	91001
1	28529844	619	91001
1	28578597	620	93439
1	28626092	621	89676
1	28674218	622	91531
1	28722821	623	93227
1	28770887	624	91425
1	28818287	625	89623
1	28866356	626	90948
1	28914340	627	91531
1	28963066	628	92273
1	29011149	629	91637
1	29059077	630	91584
1	29107268	631	91266
1	29155153	632	90789
1	29203106	633	90312
1	29251105	634	91478
1	29299247	635	91955
1	29347310	636	90418
1	29395383	637	90948
1	29443049	638	90948
1	29491329	639	91531
1	29539430	640	91319
1	29587170	641	90736
1	29635837	642	91796
1	29683421	643	90842
1	29731999	644	91690
1	29780234	645	92061
1	29828013	646	90524
1	29875977	647	90895
1	29924164	648	91372
1	29972224	649	91690
1	30020178	650	92008
1	30068492	651	90365
1	30116765	652	93280
1	30164415	653	90312
1	30212566	654	90948
1	30260865	655	92220
1	30309030	656	90895
1	30357219	657	91902
1	30405100	658	91690
1	30453834	659	92803
1	30501978	660	91001
1	30549903	661	90842
1	30597808	662	91531
1	30645493	663	89623
1	30693866	664	92220
1	30742363	665	92379
1	30789730	666	90047
1	30837901	667	90895
1	30886141	668	91531
1	30933936	669	90418
1	30981776	670	91054
1	31030293	671	93121
1	31077739	672	89199
1	31125779	673	91001
1	31174161	674	92750
1	31222106	675	90577
1	31270616	676	92220
1	31318523	677	90736
1	31366413	678	90789
1	31414536	679	91213
1	31462901	680	92061
1	31510274	681	89411
1	31558751	682	92061
1	31606787	683	91849
1	31654993	684	91902
1	31703203	685	91160
1	31751190	686	90206
1	31799340	687	92273
1	31847199	688	90683
1	31895347	689	91319
1	31943068	690	90683
1	31991503	691	92379
1	32039064	692	89729
1	32087685	693	93333
1	32135939	694	91637
1	32184148	695	92008
1	32232166	696	90577
1	32279839	697	90630
1	32328410	698	92326
1	32376122	699	90683
1	32424291	700	91372
1	32471776	701	90153
1	32520597	702	92379
1	32568218	703	91160
1	32616303	704	90471
1	32664391	705	91531
1	32712597	706	92061
1	32760740	707	90683
1	32808980	708	91637
1	32857519	709	92591
1	32905029	710	89782
1	32953544	711	92326
1	33001704	712	91266
1	33049361	713	91107
1	33098125	714	92644
1	33145735	715	90047
1	33193770	716	91372
1	33242325	717	92644
1	33290063	718	90524
1	33337874	719	90471
1	33386383	720	92061
1	33434107	721	90789
1	33482484	722	92644
1	33530724	723	90948
1	33578546	724	91372
1	33626767	725	91372
1	33675037	726	91743
1	33722422	727	89040
1	33771072	728	93121
1	33819302	729	90789
1	33867144	730	91690
1	33915030	731	90471
1	33963443	732	91955
1	34011809	733	91796
1	34059414	734	89517
1	34107544	735	92326
1	34156170	736	92803
1	34204261	737	91796
1	34252216	738	90577
1	34300065	739	90206
1	34348346	740	91690
1	34396368	741	91478
1	34444180	742	90259
1	34492353	743	92008
1	34540723	744	92538
1	34588729	745	91319
1	34636348	746	89570
1	34684979	747	92273
1	34733335	748	92538
1	34781079	749	90842
1	34829820	750	92220
1	34877312	751	89835
1	34925913	752	92379
1	34973610	753	91213
1	35022104	754	91796
1	35069548	755	89888
1	35118005	756	92273
1	35166502	757	92750
1	35214086	758	89623
1	35262121	759	90895
1	35310123	760	91531
1	35358434	761	91478
1	35406454	762	91001
1	35454598	763	91584
1	35503087	764	93174
1	35551127	765	90789
1	35599226	766	91637
1	35647421	767	91796
1	35695570	768	90683
1	35742901	769	89146
1	35791695	770	93863
1	35840001	771	91584
1	35887497	772	89835
1	35935361	773	90683
1	35984015	774	92538
1	36031817	775	90259
1	36079717	776	91584
1	36127979	777	91213
1	36176087	778	91584
1	36224237	779	91478
1	36271965	780	90259
1	36320135	781	91160
1	36368450	782	91955
1	36415909	783	89888
1	36464090	784	92485
1	36512751	785	91955
1	36560873	786	91266
1	36608779	787	91054
1	36657007	788	92008
1	36704540	789	89835
1	36752892	790	90895
1	36801574	791	93280
1	36848656	792	88563
1	36897069	793	92379
1	36945325	794	92803
1	36993292	795	90100
1	37041632	796	92220
1	37089601	797	90842
1	37137565	798	91054
1	37185648	799	91637
1	37233815	800	91054
1	37282202	801	92220
1	37330066	802	91107
1	37378247	803	91319
1	37426278	804	91160
1	37474278	805	91213
1	37522202	806	91107
1	37570129	807	90524
1	37618587	808	92220
1	37666267	809	89941
1	37713989	810	90418
1	37762138	811	91955
1	37810408	812	91160
1	37858790	813	91637
1	37906598	814	90630
1	37954991	815	92644
1	38002837	816	90259
1	38050590	817	90206
1	38098979	818	92591
1	38147164	819	90789
1	38195065	820	91266
1	38243756	821	92432
1	38291608	822	90524
1	38339582	823	91531
1	38387869	824	91372
1	38435590	825	90895
1	38483803	826	91160
1	38531844	827	91690
1	38579632	828	90683
1	38627829	829	91213
1	38676407	830	92167
1	38724213	831	91531
1	38772703	832	92114
1	38820029	833	89040
1	38868666	834	92273
1	38916000	835	90418
1	38964380	836	90683
1	39012768	837	93386
1	39060550	838	90789
1	39108899	839	91478
1	39156648	840	90524
1	39205239	841	92326
1	39253346	842	91319
1	39301720	843	92114
1	39350062	844	92114
1	39397848	845	90842
1	39446139	846	92167
1	39494167	847	91054
1	39542485	848	91902
1	39590384	849	90153
1	39638551	850	92379
1	39687283	851	93174
1	39734577	852	88987
1	39783216	853	92697
1	39830934	854	89252
1	39878912	855	92909
1	39927393	856	91955
1	39974956	857	90312
1	40023580	858	92697
1	40071825	859	91107
1	40119882	860	91213
1	40168319	861	93598
1	40216203	862	89888
1	40264323	863	91054
1	40311947	864	90736
1	40360057	865	90683
1	40408329	866	92379
1	40456685	867	91690
1	40504949	868	91690
1	40553192	869	92008
1	40601086	870	91531
1	40649347	871	90789
1	40697142	872	90524
1	40745443	873	91849
1	40793784	874	91902
1	40841701	875	91584
1	40889943	876	91266
1	40937993	877	91054
1	40986155	878	91372
1	41034328	879	91584
1	41082011	880	90259
1	41130333	881	91690
1	41179271	882	93757
1	41226120	883	88298
1	41275089	884	92856
1	41322978	885	91054
1	41371423	886	92962
1	41419528	887	91213
1	41467487	888	91372
1	41516055	889	92167
1	41563883	890	90365
1	41611625	891	90153
1	41659582	892	90789
1	41707367	893	91160
1	41755696	894	92909
1	41803545	895	90206
1	41851973	896	92326
1	41900176	897	90895
1	41947480	898	89888
1	41996294	899	92962
1	42044160	900	91478
1	42092270	901	90259
1	42140585	902	92326
1	42188417	903	90842
1	42236631	904	91796
1	42284626	905	90789
1	42333447	906	93333
1	42381393	907	90312
1	42429873	908	92697
1	42477640	909	91425
1	42525269	910	90206
1	42574019	911	92962
1	42622180	912	91690
1	42670288	913	90630
1	42718566	914	92326
1	42766621	915	91372
1	42814239	916	89994
1	42862557	917	92697
1	42910676	918	91478
1	42958660	919	89729
1	43007070	920	92167
1	43054339	921	89305
1	43103058	922	93121
1	43150046	923	88669
1	43198548	924	91849
1	43246715	925	92008
1	43295094	926	91955
1	43342847	927	90789
1	43391186	928	92379
1	43439451	929	92114
1	43487613	930	90471
1	43535705	931	91478
1	43583341	932	90789
1	43631652	933	91743
1	43680230	934	92167
1	43727825	935	89782
1	43776356	936	92909
1	43824244	937	90259
1	43871558	938	89411
1	43920043	939	92538
1	43967841	940	90683
1	44016035	941	91849
1	44064151	942	91266
1	44112819	943	92220
1	44160460	944	90365
1	44208252	945	90524
1	44256709	946	91796
1	44304263	947	89729
1	44352900	948	93068
1	44401047	949	91319
1	44448981	950	90206
1	44496626	951	90524
1	44545175	952	92591
1	44593413	953	91531
1	44641039	954	89464
1	44689267	955	91743
1	44737167	956	91001
1	44785415	957	91478
1	44833587	958	92432
1	44881679	959	90948
1	44929971	960	91478
1	44977605	961	90153
1	45025496	962	91107
1	45074103	963	91902
1	45122049	964	91637
1	45170214	965	90789
1	45217897	966	90365
1	45266631	967	92644
1	45314631	968	91478
1	45362249	969	89464
1	45410973	970	92591
1	45458719	971	90842
1	45506655	972	90206
1	45554626	973	90524
1	45603241	974	93439
1	45650853	975	90047
1	45699326	976	92273
1	45746258	977	88298
1	45794754	978	92591
1	45842504	979	90789
1	45891058	980	92114
1	45939436	981	92008
1	45987359	982	90471
1	46034906	983	89941
1	46082859	984	90789
1	46130755	985	90683
1	46179027	986	91902
1	46226873	987	91743
1	46275700	988	92538
1	46323708	989	91796
1	46371451	990	90365
1	46419912	991	91902
1	46467440	992	89623
1	46515881	993	92167
1	46564001	994	91690
1	46611484	995	89623
1	46659770	996	91372
1	46707794	997	90418
1	46755459	998	90577
1	46803593	999	91637
1	46851697	1000	91478
1	46900405	1001	93015
1	46947586	1002	87874
1	46996115	1003	93280
1	47044284	1004	90736
1	47092509	1005	92167
1	47139850	1006	89570
1	47188274	1007	91849
1	47236109	1008	90471
1	47284307	1009	92220
1	47332170	1010	90259
1	47380441	1011	91849
1	47428195	1012	90948
1	47476370	1013	91372
1	47524433	1014	90948
1	47572466	1015	91478
1	47620961	1016	92008
1	47668509	1017	89994
1	47716890	1018	91319
1	47764849	1019	92220
1	47812850	1020	91372
1	47861004	1021	90789
1	47908674	1022	91319
1	47957326	1023	91849
1	48005039	1024	90630
1	48053745	1025	92432
1	48100850	1026	88245
1	48149554	1027	92644
1	48196998	1028	90312
1	48245854	1029	93598
1	48293971	1030	90842
1	48341821	1031	90577
1	48389471	1032	91690
1	48438033	1033	91690
1	48485571	1034	90365
1	48533928	1035	91478
1	48581707	1036	90259
1	48630066	1037	91955
1	48677726	1038	90206
1	48726097	1039	92538
1	48774099	1040	91319
1	48821856	1041	90312
1	48870439	1042	92644
1	48918344	1043	91584
1	48966334	1044	90683
1	49014308	1045	90471
1	49062540	1046	92379
1	49111053	1047	92538
1	49159107	1048	91054
1	49206862	1049	90418
1	49254624	1050	89835
1	49303031	1051	92220
1	49351034	1052	91054
1	49399174	1053	91266
1	49447639	1054	92432
1	49495773	1055	91478
1	49543773	1056	91160
1	49591870	1057	91425
1	49640164	1058	91690
1	49687877	1059	90365
1	49736168	1060	92326
1	49784345	1061	91001
1	49832379	1062	90789
1	49880558	1063	91690
1	49928223	1064	90259
1	49976707	1065	92909
1	50024529	1066	89729
1	50073333	1067	93704
1	50120921	1068	90259
1	50168778	1069	90524
1	50216919	1070	90895
1	50265192	1071	91266
1	50313011	1072	91054
1	50361007	1073	91213
1	50409152	1074	91531
1	50457476	1075	92061
1	50505046	1076	90471
1	50553779	1077	91743
1	50601474	1078	90842
1	50649873	1079	91690
1	50698049	1080	91849
1	50745661	1081	89941
1	50794425	1082	93704
1	50841938	1083	89729
1	50890413	1084	91478
1	50938187	1085	91319
1	50987104	1086	93068
1	51034025	1087	88775
1	51082968	1088	93280
1	51130629	1089	90948
1	51178733	1090	90365
1	51226648	1091	91054
1	51274787	1092	91690
1	51323238	1093	91955
1	51371075	1094	90630
1	51418622	1095	90047
1	51467106	1096	91425
1	51515164	1097	91372
1	51563377	1098	91531
1	51610955	1099	90312
1	51659512	1100	92591
1	51707391	1101	89782
1	51755562	1102	92114
1	51803328	1103	90736
1	51851279	1104	90577
1	51899358	1105	91531
1	51947534	1106	91637
1	51995544	1107	91160
1	52043538	1108	90842
1	52091654	1109	91372
1	52140186	1110	92697
1	52187752	1111	89623
1	52235751	1112	91001
1	52283621	1113	92167
1	52331735	1114	90365
1	52379759	1115	91425
1	52427898	1116	91054
1	52476435	1117	92273
1	52524174	1118	91107
1	52572053	1119	89782
1	52620370	1120	91637
1	52668264	1121	92220
1	52716566	1122	91902
1	52764383	1123	90153
1	52812905	1124	91478
1	52861030	1125	91902
1	52909098	1126	91637
1	52956632	1127	89623
1	53005229	1128	92273
1	53053379	1129	91107
1	53101119	1130	90789
1	53149032	1131	90895
1	53197722	1132	92750
1	53245215	1133	90524
1	53293419	1134	90524
1	53341533	1135	91584
1	53389417	1136	90895
1	53437954	1137	92750
1	53485718	1138	90047
1	53533811	1139	90895
1	53582025	1140	91690
1	53630321	1141	91902
1	53678195	1142	91160
1	53726448	1143	90948
1	53774560	1144	91425
1	53822356	1145	90471
1	53870309	1146	91478
1	53918595	1147	91266
1	53966596	1148	91319
1	54014735	1149	91054
1	54063086	1150	92167
1	54111172	1151	91054
1	54158842	1152	91213
1	54207165	1153	91478
1	54255653	1154	92220
1	54303695	1155	90683
1	54351459	1156	91160
1	54399380	1157	90418
1	54448013	1158	92803
1	54495759	1159	90365
1	54544056	1160	92644
1	54592051	1161	90948
1	54639979	1162	90206
1	54688029	1163	91531
1	54736113	1164	91478
1	54783891	1165	90524
1	54831985	1166	91584
1	54880404	1167	92485
1	54928891	1168	92379
1	54976689	1169	89994
1	55024232	1170	89040
1	55072766	1171	93598
1	55120534	1172	90259
1	55168613	1173	91213
1	55216946	1174	91955
1	55265125	1175	91637
1	55312638	1176	89835
1	55361208	1177	92379
1	55409179	1178	91266
1	55457058	1179	91054
1	55505317	1180	91478
1	55553073	1181	90948
1	55601379	1182	91743
1	55649420	1183	90842
1	55697219	1184	91372
1	55745536	1185	91531
1	55792953	1186	89305
1	55841339	1187	92485
1	55889814	1188	92379
1	55937551	1189	90630
1	55985603	1190	90842
1	56033067	1191	90312
1	56081394	1192	91637
1	56129702	1193	92644
1	56177491	1194	89941
1	56225473	1195	89941
1	56274150	1196	93333
1	56321375	1197	89305
1	56369854	1198	92326
1	56417929	1199	91319
1	56466405	1200	92220
1	56514107	1201	90577
1	56562477	1202	91319
1	56609704	1203	89782
1	56658393	1204	93386
1	56706065	1205	89941
1	56754203	1206	90471
1	56802400	1207	92061
1	56850637	1208	91531
1	56898832	1209	91372
1	56946973	1210	91796
1	56994640	1211	89888
1	57042669	1212	91531
1	57090642	1213	90736
1	57138919	1214	91584
1	57186495	1215	90153
1	57235020	1216	92803
1	57283152	1217	92220
1	57331008	1218	91107
1	57379070	1219	90842
1	57427100	1220	91213
1	57474885	1221	91001
1	57523624	1222	91955
1	57571119	1223	90577
1	57619729	1224	92061
1	57667809	1225	91213
1	57715289	1226	89358
1	57763598	1227	91796
1	57811826	1228	91902
1	57859404	1229	90259
1	57907896	1230	92061
1	57955263	1231	89146
1	58003527	1232	92220
1	58051890	1233	92114
1	58099958	1234	90842
1	58148149	1235	91902
1	58195994	1236	90524
1	58244097	1237	90789
1	58292583	1238	92008
1	58340234	1239	90736
1	58388457	1240	91425
1	58436662	1241	91796
1	58484264	1242	89570
1	58532587	1243	92220
1	58580920	1244	91902
1	58628652	1245	90524
1	58676837	1246	90895
1	58725357	1247	93068
1	58772807	1248	88616
1	58821551	1249	93386
1	58869288	1250	90471
1	58916965	1251	91001
1	58965927	1252	92909
1	59013626	1253	90524
1	59061402	1254	89835
1	59109597	1255	91743
1	59157621	1256	91001
1	59206017	1257	92167
1	59253465	1258	90047
1	59301623	1259	90842
1	59349996	1260	92220
1	59397334	1261	88139
1	59445523	1262	91531
1	59493872	1263	92697
1	59541688	1264	90630
1	59589892	1265	91531
1	59637683	1266	89305
1	59685740	1267	91902
1	59733906	1268	90418
1	59781476	1269	90948
1	59829765	1270	91001
1	59877949	1271	92273
1	59925237	1272	89358
1	59974024	1273	92856
1	60021990	1274	90789
1	60069370	1275	89305
1	60117883	1276	92061
1	60165783	1277	91107
1	60213311	1278	89676
1	60262002	1279	93439
1	60310293	1280	91531
1	60357693	1281	89782
1	60405855	1282	91425
1	60454194	1283	92061
1	60502042	1284	90736
1	60550022	1285	91531
1	60598794	1286	92750
1	60646207	1287	89888
1	60694931	1288	92909
1	60742692	1289	91425
1	60790851	1290	91054
1	60838496	1291	90047
1	60887195	1292	93333
1	60934427	1293	89199
1	60982919	1294	92432
1	61031188	1295	92008
1	61079265	1296	91213
1	61127228	1297	90683
1	61175427	1298	91425
1	61223654	1299	91425
1	61271249	1300	90418
1	61319381	1301	91637
1	61367908	1302	92803
1	61415226	1303	89252
1	61463636	1304	92114
1	61511353	1305	90524
1	61559665	1306	91531
1	61607501	1307	90630
1	61655853	1308	92379
1	61704057	1309	90736
1	61752217	1310	91849
1	61799544	1311	89411
1	61848560	1312	93757
1	61896250	1313	90206
1	61943717	1314	89835
1	61992017	1315	91001
1	62039715	1316	90577
1	62087668	1317	91372
1	62135967	1318	91796
1	62184331	1319	91531
1	62231795	1320	89411
1	62280021	1321	91637
1	62327580	1322	90630
1	62375671	1323	90630
1	62424037	1324	92432
1	62472465	1325	92697
1	62520076	1326	89358
1	62568141	1327	91001
1	62615787	1328	90471
1	62664185	1329	91796
1	62712195	1330	91319
1	62760208	1331	90842
1	62808304	1332	91637
1	62856330	1333	90948
1	62904189	1334	90736
1	62952370	1335	91054
1	63000583	1336	92008
1	63048415	1337	89994