version 2
run QLearnCC-7-20100707-12:00:41-3576
attr alpha 0.1
attr configname QLearnCC
attr datetime 20100707-12:00:41
attr epsilon 0.05
attr experiment QLearnCC
attr inifile D:/Developement/Oversim2/multic/simulations/omnetpp.ini
attr iterationvars "$alpha=0.1, $lamda=1.0, $reinfup=0.1, $epsilon=0.05"
attr iterationvars2 "$alpha=0.1, $lamda=1.0, $reinfup=0.1, $epsilon=0.05, $repetition=0"
attr lamda 1.0
attr measurement "$alpha=0.1, $lamda=1.0, $reinfup=0.1, $epsilon=0.05"
attr network oversim.underlay.simpleunderlay.SimpleUnderlayNetwork
attr processid 3576
attr reinfup 0.1
attr repetition 0
attr replication #0
attr resultdir results
attr runnumber 7
attr seedset 7

vector 1  SimpleUnderlayNetwork.globalObserver.globalStatistics  incoming_bytes  ETV
vector 2  SimpleUnderlayNetwork.globalObserver.globalStatistics  drops  ETV
vector 3  SimpleUnderlayNetwork.globalObserver.globalStatistics  9rateOf1To0  ETV
vector 4  SimpleUnderlayNetwork.globalObserver.globalStatistics  max9RateOf1To0  ETV
vector 5  SimpleUnderlayNetwork.globalObserver.globalStatistics  9rateOf1To1  ETV
vector 6  SimpleUnderlayNetwork.globalObserver.globalStatistics  max9RateOf1To1  ETV
vector 7  SimpleUnderlayNetwork.globalObserver.globalStatistics  9rateOf1To2  ETV
vector 8  SimpleUnderlayNetwork.globalObserver.globalStatistics  max9RateOf1To2  ETV
vector 9  SimpleUnderlayNetwork.globalObserver.globalStatistics  9rateOf1To3  ETV
vector 10  SimpleUnderlayNetwork.globalObserver.globalStatistics  max9RateOf1To3  ETV
vector 11  SimpleUnderlayNetwork.globalObserver.globalStatistics  9rateOf1To4  ETV
vector 12  SimpleUnderlayNetwork.globalObserver.globalStatistics  max9RateOf1To4  ETV
vector 13  SimpleUnderlayNetwork.globalObserver.globalStatistics  9rateOf1To5  ETV
vector 14  SimpleUnderlayNetwork.globalObserver.globalStatistics  max9RateOf1To5  ETV
vector 15  SimpleUnderlayNetwork.globalObserver.globalStatistics  9rateOf1To6  ETV
vector 16  SimpleUnderlayNetwork.globalObserver.globalStatistics  max9RateOf1To6  ETV
vector 17  SimpleUnderlayNetwork.globalObserver.globalStatistics  9rateOf1To7  ETV
vector 18  SimpleUnderlayNetwork.globalObserver.globalStatistics  max9RateOf1To7  ETV
vector 19  SimpleUnderlayNetwork.globalObserver.globalStatistics  9rateOf1To8  ETV
vector 20  SimpleUnderlayNetwork.globalObserver.globalStatistics  max9RateOf1To8  ETV
vector 21  SimpleUnderlayNetwork.globalObserver.globalStatistics  9rateOf1To9  ETV
vector 22  SimpleUnderlayNetwork.globalObserver.globalStatistics  max9RateOf1To9  ETV
vector 23  SimpleUnderlayNetwork.globalObserver.globalStatistics  1rate  ETV
vector 24  SimpleUnderlayNetwork.globalObserver.globalStatistics  max2Rate  ETV
vector 25  SimpleUnderlayNetwork.globalObserver.globalStatistics  "GlobalNodeList: Number of nodes"  ETV
vector 26  SimpleUnderlayNetwork.globalObserver.globalStatistics  "GlobalNodeList: Number of bootstrapped malicious nodes"  ETV
1	4457301	121	91160
1	4505181	122	92220
1	4552138	123	89888
1	4600216	124	92591
1	4647620	125	91584
1	4695362	126	92379
1	4742810	127	91266
1	4790504	128	92856
1	4838114	129	91372
1	4886390	130	93280
1	4933109	131	89570
1	4980874	132	92856
1	5028566	133	91743
1	5076178	134	92167
1	5123838	135	91425
1	5171205	136	91107
1	5218760	137	91743
1	5266368	138	92220
1	5313886	139	91001
1	5361312	140	91425
1	5408653	141	90948
1	5456287	142	92273
1	5504090	143	92697
1	5551597	144	90577
1	5599008	145	92008
1	5646737	146	91690
1	5694784	147	92909
1	5742169	148	90736
1	5789737	149	91266
1	5837369	150	92167
1	5885175	151	92538
1	5932785	152	92432
1	5980456	153	90895
1	6028010	154	92114
1	6075520	155	91001
1	6123311	156	92697
1	6170324	157	89676
1	6217852	158	92273
1	6265685	159	91902
1	6313799	160	93333
1	6361197	161	92061
1	6408706	162	90524
1	6456465	163	92856
1	6503695	164	90418
1	6551602	165	92432
1	6599307	166	91531
1	6646404	167	91478
1	6693832	168	90577
1	6741353	169	92114
1	6788744	170	90153
1	6836389	171	92538
1	6883894	172	91425
1	6931602	173	92008
1	6979188	174	91213
1	7026435	175	91478
1	7074429	176	92432
1	7121756	177	90948
1	7169101	178	91690
1	7216465	179	91266
1	7264518	180	92591
1	7311870	181	91001
1	7359379	182	91213
1	7407113	183	93015
1	7454912	184	91955
1	7502330	185	91425
1	7550274	186	92379
1	7597571	187	90524
1	7645016	188	91690
1	7692450	189	92591
1	7740103	190	91213
1	7787850	191	91690
1	7835441	192	91796
1	7882881	193	92326
1	7931033	194	92909
1	7978532	195	90789
1	8026007	196	92379
1	8072912	197	89093
1	8120675	198	93545
1	8168011	199	90047
1	8215654	200	91690
1	8263331	201	91796
1	8310856	202	91902
1	8358822	203	92432
1	8406499	204	91319
1	8454153	205	92909
1	8501318	206	91107
1	8549315	207	92697
1	8596436	208	89729
1	8643977	209	92856
1	8691508	210	91054
1	8738126	211	88934
1	8785692	212	92326
1	8832695	213	89994
1	8880969	214	92803
1	8928547	215	92485
1	8976197	216	92114
1	9023803	217	91637
1	9071197	218	91213
1	9118651	219	90312
1	9166951	220	94128
1	9213878	221	90153
1	9261573	222	92538
1	9308565	223	89994
1	9356262	224	92326
1	9403399	225	90259
1	9450499	226	91001
1	9497971	227	91955
1	9544831	228	89146
1	9592719	229	93651
1	9640207	230	90789
1	9688067	231	93015
1	9735364	232	90736
1	9782795	233	91955
1	9830672	234	92114
1	9877608	235	89888
1	9925228	236	91796
1	9972653	237	91902
1	10020097	238	91637
1	10067878	239	92273
1	10115307	240	92379
1	10163128	241	91054
1	10210434	242	92114
1	10257834	243	91213
1	10305057	244	91319
1	10352620	245	91796
1	10399730	246	90842
1	10447111	247	91372
1	10494487	248	91955
1	10542254	249	92114
1	10589780	250	91478
1	10637262	251	91266
1	10684466	252	91796
1	10732390	253	91849
1	10779709	254	90736
1	10826906	255	92485
1	10874899	256	92485
1	10922446	257	91213
1	10970026	258	91743
1	11017188	259	91425
1	11065318	260	92909
1	11112450	261	90842
1	11159449	262	90524
1	11207169	263	92379
1	11254626	264	92432
1	11302097	265	91160
1	11349723	266	90948
1	11397142	267	92538
1	11444418	268	90789
1	11491868	269	91372
1	11539180	270	90312
1	11586362	271	92538
1	11633890	272	90895
1	11681323	273	91531
1	11728546	274	91319
1	11776117	275	91743
1	11823292	276	91743
1	11871178	277	92379
1	11918535	278	91054
1	11965559	279	90789
1	12013450	280	93174
1	12060796	281	89994
1	12108211	282	91478
1	12156114	283	92644
1	12203606	284	92008
1	12251219	285	91531
1	12298413	286	90630
1	12346411	287	93492
1	12394236	288	91531
1	12441449	289	91902
1	12489217	290	92326
1	12536759	291	92485
1	12584385	292	91478
1	12632006	293	91849
1	12679985	294	92008
1	12727496	295	91372
1	12774713	296	91743
1	12822147	297	91902
1	12869920	298	92220
1	12917350	299	91425
1	12965093	300	92220
1	13012018	301	90259
1	13059788	302	93439
1	13107054	303	90259
1	13154652	304	92114
1	13202238	305	92008
1	13250211	306	91425
1	13297351	307	91001
1	13344794	308	91690
1	13391877	309	90153
1	13439373	310	91584
1	13486756	311	91690
1	13534440	312	92008
1	13582180	313	92326
1	13629441	314	90683
1	13676890	315	92114
1	13723903	316	89888
1	13771613	317	93068
1	13819754	318	91425
1	13867321	319	93015
1	13914860	320	91743
1	13962071	321	91001
1	14009921	322	92379
1	14056793	323	90312
1	14104593	324	91743
1	14152343	325	92962
1	14199820	326	91637
1	14247174	327	91690
1	14294459	328	90471
1	14341718	329	90842
1	14389100	330	91743
1	14436924	331	92644
1	14484497	332	91531
1	14531884	333	91637
1	14579453	334	91160
1	14626970	335	91849
1	14674077	336	91372
1	14721413	337	90842
1	14769207	338	91955
1	14816333	339	90259
1	14864439	340	93174
1	14911587	341	91584
1	14959140	342	91213
1	15006419	343	90736
1	15053860	344	92220
1	15101285	345	90312
1	15148918	346	93121
1	15196125	347	90683
1	15243846	348	91690
1	15291531	349	92644
1	15339101	350	91690
1	15386725	351	92114
1	15434047	352	90895
1	15481376	353	91372
1	15528546	354	91107
1	15576214	355	91160
1	15623611	356	91955
1	15671074	357	91531
1	15718728	358	91849
1	15765897	359	90577
1	15813482	360	91637
1	15860699	361	91160
1	15907972	362	90736
1	15955405	363	91955
1	16003190	364	92220
1	16050474	365	90471
1	16098196	366	92962
1	16145572	367	91266
1	16193345	368	92167
1	16240462	369	91001
1	16287972	370	91478
1	16335535	371	91796
1	16383225	372	91743
1	16430347	373	91266
1	16477868	374	91266
1	16525044	375	90100
1	16572721	376	93439
1	16620124	377	90418
1	16667428	378	91849
1	16714967	379	92220
1	16762570	380	91902
1	16809797	381	91160
1	16857153	382	91213
1	16904870	383	92114
1	16951862	384	90100
1	16999461	385	92591
1	17047304	386	91902
1	17094710	387	92167
1	17142247	388	91160
1	17190028	389	91902
1	17237192	390	90895
1	17284741	391	93121
1	17332536	392	91584
1	17379912	393	91160
1	17427420	394	92644
1	17475113	395	92167
1	17522933	396	91319
1	17570365	397	91955
1	17618083	398	92909
1	17665508	399	91213
1	17713272	400	92061
1	17760496	401	90471
1	17807937	402	92697
1	17855828	403	91637
1	17903097	404	91160
1	17950709	405	91955
1	17997962	406	92061
1	18045272	407	90047
1	18092987	408	92114
1	18140663	409	92273
1	18188345	410	92220
1	18235642	411	90365
1	18283481	412	93598
1	18330827	413	90842
1	18378435	414	91902
1	18426088	415	91690
1	18473781	416	92379
1	18521313	417	90948
1	18568792	418	92061
1	18616615	419	91955
1	18663564	420	91213
1	18710733	421	90206
1	18758237	422	90471
1	18805439	423	92167
1	18853470	424	92750
1	18900966	425	91266
1	18948123	426	91478
1	18995613	427	91955
1	19043072	428	90206
1	19090712	429	92856
1	19137814	430	90683
1	19185721	431	93121
1	19232979	432	90683
1	19280393	433	91743
1	19327816	434	90683
1	19375599	435	92856
1	19422931	436	91584
1	19470392	437	91955
1	19518018	438	91266
1	19565228	439	90577
1	19613057	440	92485
1	19660628	441	92432
1	19708081	442	90577
1	19755426	443	91743
1	19802894	444	91266
1	19850210	445	91531
1	19898018	446	92485
1	19945901	447	92273
1	19992964	448	91637
1	20040476	449	91849
1	20087967	450	89888
1	20135195	451	90948
1	20182721	452	92485
1	20230479	453	92432
1	20277954	454	90047
1	20325342	455	92273
1	20372195	456	89570
1	20419891	457	93174
1	20467629	458	91955
1	20515335	459	92538
1	20563111	460	91743
1	20610450	461	91637
1	20658017	462	90842
1	20704937	463	91054
1	20752327	464	90789
1	20800364	465	94499
1	20847560	466	90312
1	20895130	467	91584
1	20942856	468	91849
1	20990472	469	92326
1	21037668	470	89994
1	21085039	471	92061
1	21132616	472	92220
1	21180117	473	91425
1	21227306	474	90683
1	21275034	475	92485
1	21322936	476	91690
1	21370551	477	92962
1	21417878	478	90524
1	21465653	479	93386
1	21513102	480	91584
1	21560952	481	93174
1	21608478	482	89888
1	21655825	483	92379
1	21703888	484	92750
1	21751279	485	91319
1	21798805	486	92379
1	21846221	487	91743
1	21893935	488	91213
1	21941694	489	92114
1	21988597	490	90789
1	22036174	491	91531
1	22083445	492	91796
1	22131096	493	91902
1	22177675	494	88881
1	22225253	495	93121
1	22272505	496	90683
1	22320163	497	91902
1	22367831	498	91690
1	22415412	499	92273
1	22462902	500	91849
1	22510507	501	91319
1	22557801	502	91054
1	22605048	503	91690
1	22652570	504	90206
1	22700080	505	91584
1	22747136	506	92167
1	22794829	507	91319
1	22842424	508	92008
1	22889795	509	92326
1	22937048	510	90842
1	22984719	511	91902
1	23032185	512	91319
1	23079310	513	91319
1	23126819	514	92061
1	23174876	515	92538
1	23222067	516	90895
1	23269738	517	92061
1	23317022	518	91054
1	23364538	519	92114
1	23411852	520	91849
1	23459506	521	91955
1	23506917	522	91372
1	23554389	523	91743
1	23602034	524	90842
1	23649189	525	91584
1	23696294	526	90418
1	23743956	527	92591
1	23791516	528	91902
1	23839036	529	91743
1	23886726	530	90842
1	23934474	531	93227
1	23982213	532	92061
1	24029398	533	90259
1	24077002	534	92008
1	24124563	535	91319
1	24171894	536	91743
1	24219439	537	92273
1	24267269	538	92432
1	24314702	539	90153
1	24361951	540	92326
1	24409795	541	91902
1	24457176	542	91743
1	24504668	543	90842
1	24552324	544	92114
1	24599566	545	91690
1	24647109	546	91955
1	24694604	547	91160
1	24741905	548	90630
1	24789505	549	92591
1	24837045	550	91478
1	24884335	551	90948
1	24932131	552	93174
1	24979370	553	91054
1	25026992	554	91743
1	25074566	555	91849
1	25122349	556	92591
1	25169185	557	89146
1	25217227	558	92803
1	25264134	559	91213
1	25312201	560	92273
1	25359471	561	90895
1	25406915	562	93068
1	25454667	563	91319
1	25501837	564	90736
1	25549440	565	92008
1	25596769	566	90948
1	25644312	567	92432
1	25691687	568	91266
1	25739810	569	92856
1	25787173	570	91478
1	25834601	571	90895
1	25881905	572	91637
1	25929349	573	90577
1	25977025	574	92538
1	26024407	575	91160
1	26071903	576	92114
1	26119264	577	90842
1	26166272	578	90630
1	26214159	579	92644
1	26261594	580	91902
1	26309250	581	91743
1	26356581	582	90895
1	26404496	583	93068
1	26451673	584	90683
1	26499145	585	91637
1	26546709	586	92432
1	26594208	587	90577
1	26641510	588	91160
1	26689075	589	91584
1	26736397	590	91213
1	26783894	591	91902
1	26831819	592	93227
1	26879279	593	90630
1	26927094	594	92273
1	26974415	595	90895
1	27021935	596	92909
1	27069704	597	91743
1	27116636	598	89782
1	27164576	599	93121
1	27212036	600	91955
1	27259767	601	92326
1	27307391	602	92114
1	27354938	603	92114
1	27402851	604	91319
1	27449778	605	91213
1	27497194	606	91531
1	27544454	607	90259
1	27591718	608	91001
1	27639388	609	92538
1	27686843	610	91796
1	27734642	611	91796
1	27781976	612	91319
1	27829224	613	90630
1	27876632	614	92008
1	27924090	615	91001
1	27971417	616	92220
1	28018732	617	90789
1	28066111	618	90948
1	28113991	619	93068
1	28161059	620	89941
1	28208840	621	92697
1	28256009	622	90736
1	28303686	623	91743
1	28351162	624	91690
1	28398455	625	90948
1	28446201	626	92644
1	28493845	627	91849
1	28541328	628	92167
1	28588620	629	90153
1	28636070	630	91796
1	28683714	631	91849
1	28731156	632	91902
1	28778556	633	91107
1	28826458	634	92273
1	28873512	635	90524
1	28921019	636	91796
1	28968652	637	92432
1	29015903	638	90948
1	29063584	639	92856
1	29110876	640	90365
1	29158455	641	90842
1	29205953	642	92432
1	29253653	643	93068
1	29300443	644	89305
1	29348666	645	93386
1	29395903	646	91425
1	29443327	647	91160
1	29491053	648	91955
1	29538555	649	92061
1	29586554	650	92591
1	29634037	651	91743
1	29681636	652	91213
1	29729276	653	92591
1	29776983	654	92220
1	29824485	655	91531
1	29871907	656	91001
1	29919671	657	92379
1	29967342	658	92061
1	30014956	659	91531
1	30062389	660	91584
1	30110102	661	92167
1	30157630	662	91107
1	30204605	663	89358
1	30252193	664	92061
1	30299018	665	90365
1	30346779	666	91107
1	30394189	667	91849
1	30441716	668	91531
1	30488976	669	92061
1	30536919	670	92326
1	30584318	671	90895
1	30631766	672	91690
1	30679347	673	91637
1	30727191	674	91902
1	30774274	675	91107
1	30822137	676	92538
1	30869887	677	92008
1	30917090	678	89623
1	30964988	679	93916
1	31012191	680	90736
1	31059973	681	91849
1	31107543	682	92167
1	31155024	683	91107
1	31202800	684	92061
1	31250676	685	92644
1	31297800	686	90524
1	31345842	687	92909
1	31393071	688	90842
1	31441227	689	93227
1	31488865	690	91584
1	31536431	691	92273
1	31583956	692	90630
1	31631592	693	92432
1	31679020	694	91478
1	31726609	695	92220
1	31774044	696	91160
1	31821488	697	91849
1	31869371	698	92803
1	31916665	699	90842
1	31964200	700	91690
1	32011928	701	91425
1	32059484	702	92220
1	32107154	703	92061
1	32154941	704	92220
1	32201937	705	89676
1	32249884	706	93492
1	32297598	707	90895
1	32344974	708	92432
1	32392664	709	91531
1	32440264	710	91372
1	32487638	711	91531
1	32535346	712	92008
1	32582616	713	91531
1	32630360	714	92591
1	32678452	715	92856
1	32725841	716	90895
1	32773080	717	90100
1	32821042	718	93492
1	32868009	719	89835
1	32915668	720	91107
1	32963296	721	93068
1	33010442	722	89941
1	33058363	723	93015
1	33105483	724	90100
1	33153093	725	92114
1	33200627	726	92273
1	33247845	727	89888
1	33295336	728	92644
1	33342997	729	91796
1	33390563	730	90630
1	33438444	731	92273
1	33485809	732	92114
1	33533310	733	91478
1	33580750	734	91531
1	33628777	735	92220
1	33676210	736	92538
1	33723375	737	91107
1	33771056	738	91107
1	33818878	739	92856
1	33866196	740	90736
1	33912869	741	90206
1	33960796	742	92167
1	34008378	743	91637
1	34055628	744	91266
1	34103031	745	90789
1	34150766	746	92326
1	34198141	747	91743
1	34245182	748	90365
1	34292984	749	91902
1	34340845	750	92114
1	34388047	751	90577
1	34435738	752	93121
1	34483272	753	91531
1	34530826	754	92379
1	34578190	755	89358
1	34625851	756	92644
1	34673105	757	90789
1	34720774	758	92803
1	34767955	759	89411
1	34815583	760	92538
1	34863082	761	92008
1	34910797	762	91054
1	34957954	763	91849
1	35005839	764	92803
1	35053410	765	90895
1	35101253	766	92432
1	35148798	767	91955
1	35195980	768	90471
1	35243581	769	92485
1	35291185	770	91796
1	35338855	771	90312
1	35386024	772	92008
1	35433400	773	90153
1	35480873	774	92326
1	35528135	775	90630
1	35575529	776	91849
1	35623011	777	91054
1	35670384	778	92273
1	35718112	779	90630
1	35765647	780	92061
1	35812929	781	91266
1	35860278	782	91160
1	35908192	783	92856
1	35955732	784	91584
1	36003387	785	91425
1	36050935	786	92220
1	36098645	787	91107
1	36146248	788	91955
1	36193666	789	91849
1	36241256	790	91266
1	36288953	791	91796
1	36336405	792	92379
1	36383716	793	91425
1	36431511	794	91637
1	36478881	795	92326
1	36526346	796	90365
1	36573802	797	91160
1	36621253	798	92273
1	36668793	799	91690
1	36716658	800	92485
1	36764343	801	91849
1	36811335	802	90206
1	36859377	803	92379
1	36906646	804	92326
1	36954568	805	92697
1	37001917	806	89676
1	37049418	807	92644
1	37097029	808	92008
1	37144472	809	91266
1	37191867	810	91054
1	37239078	811	90683
1	37286414	812	91478
1	37334012	813	91425
1	37381619	814	91743
1	37429280	815	92114
1	37476530	816	91160
1	37524263	817	91001
1	37571802	818	93439
1	37619422	819	90471
1	37666885	820	92220
1	37714389	821	91531
1	37761377	822	90206
1	37808634	823	91902
1	37856296	824	91849
1	37903800	825	90683
1	37951470	826	92803
1	37998893	827	91743
1	38046713	828	92485
1	38094433	829	91266
1	38141617	830	91054
1	38189454	831	92538
1	38237097	832	91690
1	38283774	833	89358
1	38331727	834	93810
1	38379081	835	89570
1	38426811	836	93916
1	38474616	837	91372
1	38521716	838	90577
1	38569205	839	92379
1	38616845	840	92008
1	38664548	841	91266
1	38711882	842	91955
1	38759113	843	90259
1	38806867	844	92962
1	38854393	845	90789
1	38901912	846	91054
1	38949508	847	93227
1	38997509	848	92750
1	39044696	849	90789
1	39092236	850	91054
1	39139614	851	90842
1	39186897	852	92273
1	39234185	853	90630
1	39281946	854	91690
1	39329063	855	91319
1	39376898	856	92644
1	39424151	857	90153
1	39471207	858	90895
1	39519043	859	92909
1	39565935	860	89146
1	39613492	861	92962
1	39661037	862	91107
1	39708752	863	92114
1	39756508	864	93492
1	39804312	865	91849
1	39852052	866	92644
1	39899243	867	89994
1	39946875	868	92326
1	39994504	869	92008
1	40041944	870	91266
1	40089329	871	91372
1	40136702	872	91213
1	40184082	873	91054
1	40231131	874	90418
1	40278758	875	92644
1	40326355	876	91107
1	40373519	877	91319
1	40421273	878	92167
1	40468796	879	91319
1	40515951	880	90683
1	40563763	881	92326
1	40610898	882	91213
1	40658247	883	91001
1	40706427	884	93333
1	40753411	885	90948
1	40800925	886	91531
1	40848550	887	92061
1	40895688	888	90630
1	40943491	889	92538
1	40990844	890	91425
1	41039007	891	93386
1	41086477	892	91213
1	41133619	893	91478
1	41181673	894	93015
1	41228972	895	90577
1	41276062	896	90789
1	41323554	897	91743
1	41371018	898	91584
1	41418359	899	91955
1	41465925	900	91319
1	41513015	901	91266
1	41560910	902	92432
1	41608061	903	90153
1	41655578	904	91849
1	41702721	905	90683
1	41750467	906	92326
1	41798469	907	93174
1	41845248	908	89623
1	41892920	909	92697
1	41940267	910	91160
1	41987942	911	91796
1	42034995	912	90895
1	42082819	913	92962
1	42130206	914	91531
1	42177853	915	91372
1	42225153	916	91584
1	42273035	917	92591
1	42320634	918	92061
1	42368320	919	91690
1	42415312	920	90630
1	42462720	921	91160
1	42510357	922	92008
1	42557738	923	91584
1	42605265	924	92909
1	42652776	925	90206
1	42699886	926	91955
1	42747317	927	89835
1	42794701	928	92167
1	42842093	929	92114
1	42889557	930	91743
1	42937394	931	92008
1	42984247	932	90047
1	43031815	933	91584
1	43078985	934	91160
1	43126658	935	91796
1	43173857	936	90736
1	43221308	937	93015
1	43268360	938	89570
1	43316548	939	93333
1	43363737	940	91054
1	43411515	941	93174
1	43458578	942	89782
1	43506294	943	91743
1	43553705	944	92008
1	43601600	945	92114
1	43649088	946	92061
1	43696621	947	91902
1	43744276	948	91266
1	43791914	949	91690
1	43839747	950	93174
1	43887198	951	92061
1	43934953	952	91001
1	43982452	953	91849
1	44030018	954	91637
1	44077365	955	91796
1	44125176	956	92326
1	44172666	957	92114
1	44220087	958	91902
1	44267840	959	91213
1	44315000	960	91001
1	44362590	961	92326
1	44410008	962	91478
1	44457713	963	92008
1	44505351	964	92008
1	44553060	965	93015
1	44600474	966	90683
1	44647839	967	90842
1	44695113	968	91372
1	44742633	969	92485
1	44790265	970	91743
1	44837716	971	91160
1	44885881	972	93863
1	44933018	973	90471
1	44980493	974	90471
1	45027902	975	92114
1	45075213	976	90365
1	45123140	977	93227
1	45170225	978	90312
1	45218045	979	92591
1	45265719	980	92326
1	45313132	981	91372
1	45360880	982	92909
1	45407918	983	89570
1	45455698	984	92962
1	45502787	985	90471
1	45550642	986	92591
1	45598053	987	91054
1	45645886	988	92485
1	45692735	989	89199
1	45740418	990	92909
1	45787948	991	91796
1	45835473	992	92061
1	45883323	993	92167
1	45930937	994	91849
1	45978311	995	90471
1	46025690	996	92432
1	46073249	997	91584
1	46120699	998	90948
1	46168261	999	92220
1	46216010	1000	92803
1	46263053	1001	90312
1	46310619	1002	91531
1	46358265	1003	92644
1	46406042	1004	91584
1	46453123	1005	91425
1	46500832	1006	91902
1	46548240	1007	91584
1	46595683	1008	91266
1	46643002	1009	90524
1	46690493	1010	92273
1	46738233	1011	91902
1	46785683	1012	91531
1	46833064	1013	91584
1	46880693	1014	91637
1	46928496	1015	92008
1	46975916	1016	91425
1	47023309	1017	91478
1	47071011	1018	93492
1	47118662	1019	91213
1	47166268	1020	92167
1	47213470	1021	90418
1	47261117	1022	92697
1	47308564	1023	90418
1	47356037	1024	91743
1	47403574	1025	91531
1	47451048	1026	91531
1	47498903	1027	92591
1	47545869	1028	89888
1	47593555	1029	92114
1	47641321	1030	93174
1	47688751	1031	91160
1	47736381	1032	92114
1	47784145	1033	91213
1	47831297	1034	91796
1	47878361	1035	90259
1	47926024	1036	91955
1	47973339	1037	91637
1	48020924	1038	91584
1	48068600	1039	92220
1	48116324	1040	91743
1	48163684	1041	91213
1	48211457	1042	92273
1	48258598	1043	91849
1	48306194	1044	92061
1	48354254	1045	92008
1	48401704	1046	91372
1	48449261	1047	91425
1	48496783	1048	92061
1	48544257	1049	92379
1	48592087	1050	92220
1	48640101	1051	92962
1	48687100	1052	90524
1	48735177	1053	93386
1	48782513	1054	90683
1	48830210	1055	92432
1	48877888	1056	91478
1	48924800	1057	90630
1	48972911	1058	92856
1	49019837	1059	89994
1	49067599	1060	92697
1	49115010	1061	91001
1	49162416	1062	91584
1	49209791	1063	91743
1	49257726	1064	92061
1	49305080	1065	92061
1	49352525	1066	91849
1	49399612	1067	90418
1	49447214	1068	91372
1	49494420	1069	89729
1	49542520	1070	93969
1	49589987	1071	91213
1	49637716	1072	93280
1	49685343	1073	90895
1	49732734	1074	91902
1	49780381	1075	91690
1	49828047	1076	91425
1	49875288	1077	91796
1	49922917	1078	91531
1	49970463	1079	91849
1	50017793	1080	92114
1	50065794	1081	92061
1	50113504	1082	92432
1	50160548	1083	88881
1	50208433	1084	93545
1	50256331	1085	92750
1	50303303	1086	90683
1	50351162	1087	92114
1	50398823	1088	92750
1	50446644	1089	91531
1	50494114	1090	91478
1	50541291	1091	91372
1	50588909	1092	91213
1	50636298	1093	91637
1	50683961	1094	91584
1	50731541	1095	91160
1	50779257	1096	92644
1	50826821	1097	91266
1	50874265	1098	92750
1	50921698	1099	90630
1	50969480	1100	92962
1	51016697	1101	90577
1	51064558	1102	92644
1	51111994	1103	92220
1	51159323	1104	90312
1	51206962	1105	92167
1	51254886	1106	92644
1	51302300	1107	91372
1	51349624	1108	90736
1	51397173	1109	91955
1	51445123	1110	92856
1	51492637	1111	91478
1	51540075	1112	91743
1	51587739	1113	91690
1	51635133	1114	92061
1	51682691	1115	90736
1	51730263	1116	92220
1	51777803	1117	91478
1	51825320	1118	91955
1	51873242	1119	93068
1	51920221	1120	89729
1	51968046	1121	93121
1	52015229	1122	90683
1	52062473	1123	90577
1	52110136	1124	91849
1	52157671	1125	92379
1	52205345	1126	91955
1	52252234	1127	89835
1	52300121	1128	93227
1	52347941	1129	91425
1	52395281	1130	92220
1	52442530	1131	90577
1	52490151	1132	91372
1	52537741	1133	92644
1	52585400	1134	91478
1	52633319	1135	93651
1	52681021	1136	91372
1	52728731	1137	92432
1	52776387	1138	91531
1	52823728	1139	92114
1	52871486	1140	91531
1	52919038	1141	91902
1	52966482	1142	91796
1	53014499	1143	93015
1	53062015	1144	91955
1	53109164	1145	89676
1	53156861	1146	93121
1	53204164	1147	90948
1	53251901	1148	92167
1	53299229	1149	91213
1	53346457	1150	91637
1	53394067	1151	92167
1	53441686	1152	91743
1	53489458	1153	92326
1	53536739	1154	91902
1	53584323	1155	91425
1	53632551	1156	93386
1	53679402	1157	90259
1	53727419	1158	92114
1	53774752	1159	91690
1	53822361	1160	91849
1	53869830	1161	91849
1	53917367	1162	91372
1	53964620	1163	91849
1	54011715	1164	90683
1	54059534	1165	91584
1	54106865	1166	91107
1	54154602	1167	92008
1	54201647	1168	91160
1	54249084	1169	91743
1	54296504	1170	91531
1	54344307	1171	91584
1	54391518	1172	91372
1	54439095	1173	91796
1	54486648	1174	91637
1	54533984	1175	91478
1	54581900	1176	92273
1	54629226	1177	91425
1	54676889	1178	91743
1	54724378	1179	92114
1	54772202	1180	92061
1	54819674	1181	92167
1	54867483	1182	91902
1	54914853	1183	90683
1	54962250	1184	92008
1	55009896	1185	91001
1	55057802	1186	93174
1	55104869	1187	89941
1	55152428	1188	91955
1	55200027	1189	91319
1	55247237	1190	91425
1	55295191	1191	92909
1	55342943	1192	92644
1	55390287	1193	90842
1	55438135	1194	91902
1	55485628	1195	91902
1	55533306	1196	92008
1	55580934	1197	92273
1	55628314	1198	90736
1	55675753	1199	91690
1	55723008	1200	90736
1	55770437	1201	91955
1	55817961	1202	91849
1	55865713	1203	92485
1	55913007	1204	90842
1	55960427	1205	91319
1	56007644	1206	90736
1	56054851	1207	91001
1	56102990	1208	93757
1	56149815	1209	89994
1	56197446	1210	92591
1	56245178	1211	91425
1	56292631	1212	91955
1	56339740	1213	90418
1	56387216	1214	91001
1	56435231	1215	93333
1	56482291	1216	90630
1	56529830	1217	91478
1	56577266	1218	92114
1	56624546	1219	90312
1	56672485	1220	93068
1	56720142	1221	91637
1	56767768	1222	91531
1	56815419	1223	91955
1	56862855	1224	92008
1	56910366	1225	90789
1	56957953	1226	92114
1	57005524	1227	91478
1	57053162	1228	92326
1	57100934	1229	92061
1	57148454	1230	92591
1	57195675	1231	89517
1	57242905	1232	91160
1	57290579	1233	92220
1	57338188	1234	92167
1	57385803	1235	91743
1	57433039	1236	90789
1	57480886	1237	92485
1	57528341	1238	90418
1	57575749	1239	92167
1	57623248	1240	91849
1	57670617	1241	91478
1	57718012	1242	91584
1	57765265	1243	90418
1	57812963	1244	93174
1	57860225	1245	89676
1	57907417	1246	91266
1	57954856	1247	91478
1	58002312	1248	91902
1	58049550	1249	90418
1	58097110	1250	92061
1	58144973	1251	91955
1	58192540	1252	91849
1	58239620	1253	90365
1	58287038	1254	91319
1	58334343	1255	91107
1	58381693	1256	91531
1	58429541	1257	92220
1	58476579	1258	91213
1	58524196	1259	91107
1	58571817	1260	92167
1	58619552	1261	91796
1	58666794	1262	92273
1	58714598	1263	91213
1	58762300	1264	92538
1	58809917	1265	91849
1	58857645	1266	92008
1	58905255	1267	92538
1	58953093	1268	92220
1	59000248	1269	89941
1	59047872	1270	92697
1	59095476	1271	91637
1	59142993	1272	91955
1	59190456	1273	91213
1	59237800	1274	92061
1	59285057	1275	89835
1	59332489	1276	92273
1	59379893	1277	91531
1	59427454	1278	91213
1	59474978	1279	92326
1	59522209	1280	90789
1	59569692	1281	91054
1	59617096	1282	91160
1	59664763	1283	92538
1	59711776	1284	90365
1	59759327	1285	91372
1	59806638	1286	91849
1	59854339	1287	91637
1	59902315	1288	92644
1	59949294	1289	90524
1	59997374	1290	92856
1	60044364	1291	90842
1	60091606	1292	90471
1	60139331	1293	93174
1	60187024	1294	91266
1	60234347	1295	91054
1	60281928	1296	91902
1	60329215	1297	90577
1	60377089	1298	93280
1	60424068	1299	89570
1	60471831	1300	92591
1	60518912	1301	91266
1	60566327	1302	90259
1	60613935	1303	92697
1	60661936	1304	92856
1	60709452	1305	91796
1	60757533	1306	93333
1	60804804	1307	90736
1	60852495	1308	92220
1	60899789	1309	91213
1	60947816	1310	93545
1	60995355	1311	91001
1	61042906	1312	92750
1	61090529	1313	91107
1	61138386	1314	93386
1	61185856	1315	90683
1	61233155	1316	91425
1	61281077	1317	92061
1	61328556	1318	91955
1	61375918	1319	92008
1	61423572	1320	90842
1	61471316	1321	92432
1	61518796	1322	91743
1	61566459	1323	91531
1	61613942	1324	91637
1	61661390	1325	92273
1	61709209	1326	90524
1	61756734	1327	93280
1	61804378	1328	92167
1	61851921	1329	91107
1	61899785	1330	93651
1	61947354	1331	91902
1	61994785	1332	90577
1	62042007	1333	91743
1	62089901	1334	91319
1	62137364	1335	92167
1	62184802	1336	91743
1	62232310	1337	91319
1	62280283	1338	93757
1	62327428	1339	90471