version 2
run QLearnCC-4-20100707-11:44:46-4868
attr alpha 0.1
attr configname QLearnCC
attr datetime 20100707-11:44:46
attr epsilon 0.05
attr experiment QLearnCC
attr inifile D:/Developement/Oversim2/multic/simulations/omnetpp.ini
attr iterationvars "$alpha=0.1, $lamda=1.0, $reinfup=0.4, $epsilon=0.05"
attr iterationvars2 "$alpha=0.1, $lamda=1.0, $reinfup=0.4, $epsilon=0.05, $repetition=0"
attr lamda 1.0
attr measurement "$alpha=0.1, $lamda=1.0, $reinfup=0.4, $epsilon=0.05"
attr network oversim.underlay.simpleunderlay.SimpleUnderlayNetwork
attr processid 4868
attr reinfup 0.4
attr repetition 0
attr replication #0
attr resultdir results
attr runnumber 4
attr seedset 4

vector 1  SimpleUnderlayNetwork.globalObserver.globalStatistics  incoming_bytes  ETV
vector 2  SimpleUnderlayNetwork.globalObserver.globalStatistics  drops  ETV
vector 3  SimpleUnderlayNetwork.globalObserver.globalStatistics  9rateOf1To0  ETV
vector 4  SimpleUnderlayNetwork.globalObserver.globalStatistics  max9RateOf1To0  ETV
vector 5  SimpleUnderlayNetwork.globalObserver.globalStatistics  9rateOf1To1  ETV
vector 6  SimpleUnderlayNetwork.globalObserver.globalStatistics  max9RateOf1To1  ETV
vector 7  SimpleUnderlayNetwork.globalObserver.globalStatistics  9rateOf1To2  ETV
vector 8  SimpleUnderlayNetwork.globalObserver.globalStatistics  max9RateOf1To2  ETV
vector 9  SimpleUnderlayNetwork.globalObserver.globalStatistics  9rateOf1To3  ETV
vector 10  SimpleUnderlayNetwork.globalObserver.globalStatistics  max9RateOf1To3  ETV
vector 11  SimpleUnderlayNetwork.globalObserver.globalStatistics  9rateOf1To4  ETV
vector 12  SimpleUnderlayNetwork.globalObserver.globalStatistics  max9RateOf1To4  ETV
vector 13  SimpleUnderlayNetwork.globalObserver.globalStatistics  9rateOf1To5  ETV
vector 14  SimpleUnderlayNetwork.globalObserver.globalStatistics  max9RateOf1To5  ETV
vector 15  SimpleUnderlayNetwork.globalObserver.globalStatistics  9rateOf1To6  ETV
vector 16  SimpleUnderlayNetwork.globalObserver.globalStatistics  max9RateOf1To6  ETV
vector 17  SimpleUnderlayNetwork.globalObserver.globalStatistics  9rateOf1To7  ETV
vector 18  SimpleUnderlayNetwork.globalObserver.globalStatistics  max9RateOf1To7  ETV
vector 19  SimpleUnderlayNetwork.globalObserver.globalStatistics  9rateOf1To8  ETV
vector 20  SimpleUnderlayNetwork.globalObserver.globalStatistics  max9RateOf1To8  ETV
vector 21  SimpleUnderlayNetwork.globalObserver.globalStatistics  9rateOf1To9  ETV
vector 22  SimpleUnderlayNetwork.globalObserver.globalStatistics  max9RateOf1To9  ETV
vector 23  SimpleUnderlayNetwork.globalObserver.globalStatistics  1rate  ETV
vector 24  SimpleUnderlayNetwork.globalObserver.globalStatistics  max2Rate  ETV
vector 25  SimpleUnderlayNetwork.globalObserver.globalStatistics  "GlobalNodeList: Number of nodes"  ETV
vector 26  SimpleUnderlayNetwork.globalObserver.globalStatistics  "GlobalNodeList: Number of bootstrapped malicious nodes"  ETV
1	4487591	120	91902
1	4535602	121	89835
1	4583191	122	90471
1	4631818	123	91955
1	4679594	124	89994
1	4727817	125	91266
1	4775463	126	90736
1	4823550	127	90153
1	4872180	128	92591
1	4919622	129	89305
1	4967872	130	91266
1	5015609	131	89835
1	5063995	132	91531
1	5111816	133	90418
1	5158930	134	88404
1	5207278	135	92538
1	5255698	136	91902
1	5302955	137	88404
1	5351310	138	91478
1	5398722	139	90471
1	5447198	140	91743
1	5494310	141	87344
1	5542542	142	91319
1	5590558	143	92432
1	5638765	144	90948
1	5687195	145	92326
1	5734483	146	88457
1	5782796	147	90683
1	5830866	148	92061
1	5878506	149	89411
1	5927008	150	92220
1	5974766	151	90206
1	6022602	152	90683
1	6070679	153	91213
1	6118952	154	91531
1	6166339	155	88881
1	6214806	156	93174
1	6263203	157	92273
1	6310989	158	90206
1	6359079	159	89835
1	6407088	160	91160
1	6455141	161	91690
1	6502644	162	88987
1	6551189	163	92485
1	6599155	164	90842
1	6647340	165	91213
1	6695119	166	89570
1	6743294	167	92114
1	6791199	168	90047
1	6839161	169	89729
1	6887102	170	91637
1	6935646	171	92379
1	6983178	172	88881
1	7031280	173	91266
1	7079515	174	91690
1	7127853	175	91690
1	7175239	176	88934
1	7223613	177	91849
1	7271858	178	91372
1	7319774	179	91107
1	7368037	180	91531
1	7416144	181	90842
1	7464165	182	90895
1	7512403	183	91001
1	7560152	184	90365
1	7608194	185	91849
1	7656044	186	89358
1	7704476	187	92803
1	7752534	188	91637
1	7800529	189	90259
1	7848036	190	89411
1	7896807	191	92697
1	7944116	192	89040
1	7992265	193	91054
1	8039682	194	88881
1	8088256	195	92803
1	8136269	196	90259
1	8183551	197	89941
1	8231749	198	90736
1	8279434	199	90047
1	8327613	200	90683
1	8375881	201	92432
1	8423477	202	89305
1	8471424	203	90895
1	8519064	204	89093
1	8567262	205	93227
1	8615566	206	90683
1	8663067	207	89623
1	8711294	208	91690
1	8758942	209	89835
1	8807395	210	91902
1	8855560	211	91796
1	8904026	212	92273
1	8951000	213	87662
1	8999663	214	92644
1	9047205	215	89411
1	9095483	216	91902
1	9143450	217	90524
1	9191810	218	92273
1	9239271	219	88828
1	9288022	220	93598
1	9335747	221	90259
1	9383719	222	90736
1	9431721	223	90418
1	9479521	224	89888
1	9527961	225	92114
1	9576062	226	91319
1	9624135	227	90259
1	9672233	228	91637
1	9720299	229	90789
1	9768145	230	91266
1	9815884	231	89888
1	9864241	232	92432
1	9911897	233	89199
1	9960195	234	91902
1	10007684	235	89146
1	10055906	236	92485
1	10103989	237	89623
1	10152429	238	92379
1	10199801	239	89199
1	10247960	240	91849
1	10296028	241	91001
1	10344413	242	92485
1	10392526	243	91107
1	10440557	244	90577
1	10488241	245	90577
1	10536545	246	91531
1	10583958	247	89517
1	10632413	248	91425
1	10680369	249	91319
1	10728302	250	90630
1	10776109	251	90365
1	10824504	252	92273
1	10872195	253	89358
1	10920337	254	91531
1	10968241	255	91531
1	11016259	256	89994
1	11063654	257	90206
1	11111874	258	90471
1	11160235	259	92008
1	11207968	260	90736
1	11255728	261	89411
1	11303854	262	91690
1	11352089	263	91266
1	11400365	264	92379
1	11447736	265	88828
1	11496000	266	90789
1	11543890	267	91902
1	11592222	268	90895
1	11639434	269	89146
1	11688373	270	92856
1	11735826	271	90418
1	11784321	272	91849
1	11832497	273	91425
1	11880372	274	89941
1	11928459	275	91107
1	11976690	276	90630
1	12024512	277	90948
1	12072937	278	91796
1	12120599	279	90630
1	12169043	280	91796
1	12216735	281	89994
1	12264330	282	89358
1	12313460	283	93598
1	12360644	284	89199
1	12409561	285	92909
1	12456919	286	89093
1	12504936	287	91849
1	12552888	288	89729
1	12600902	289	91107
1	12649154	290	90736
1	12696503	291	90047
1	12745002	292	91584
1	12793585	293	93121
1	12841327	294	90895
1	12888790	295	88722
1	12937554	296	91796
1	12985509	297	90630
1	13033103	298	90312
1	13081444	299	92114
1	13129322	300	90312
1	13177101	301	89252
1	13225464	302	92379
1	13273210	303	90948
1	13321159	304	89623
1	13368859	305	90471
1	13417338	306	91319
1	13465216	307	91160
1	13513251	308	90471
1	13561500	309	91584
1	13608881	310	88510
1	13657598	311	93227
1	13705358	312	89994
1	13753476	313	91372
1	13801633	314	91478
1	13849457	315	90683
1	13898192	316	91743
1	13945613	317	89729
1	13993487	318	90948
1	14041685	319	91955
1	14089605	320	89729
1	14137255	321	90153
1	14185843	322	92485
1	14233210	323	89199
1	14281600	324	92432
1	14329312	325	89888
1	14377221	326	89782
1	14425392	327	91637
1	14473281	328	90206
1	14521341	329	92220
1	14569206	330	89888
1	14617470	331	92273
1	14665858	332	90418
1	14713039	333	89729
1	14761310	334	90577
1	14809578	335	91743
1	14858171	336	92114
1	14906074	337	90471
1	14953908	338	90683
1	15001323	339	89252
1	15049832	340	92114
1	15097535	341	89782
1	15146679	342	93757
1	15193837	343	88934
1	15242278	344	92061
1	15289518	345	88775
1	15338233	346	92485
1	15385345	347	88616
1	15433959	348	92750
1	15481394	349	88881
1	15529804	350	92432
1	15577396	351	88828
1	15625690	352	91902
1	15673574	353	90524
1	15721701	354	90630
1	15769254	355	89888
1	15817601	356	91531
1	15865815	357	92114
1	15913935	358	91160
1	15962011	359	90259
1	16009556	360	89941
1	16058082	361	92167
1	16105284	362	88404
1	16153904	363	92750
1	16201452	364	89199
1	16249377	365	91478
1	16297383	366	90524
1	16345893	367	91319
1	16393701	368	90948
1	16441341	369	89888
1	16489498	370	91001
1	16537665	371	92061
1	16585310	372	89729
1	16633669	373	91902
1	16681830	374	91584
1	16730181	375	91478
1	16777799	376	90418
1	16825834	377	90153
1	16873824	378	90736
1	16921604	379	90683
1	16969577	380	91054
1	17018114	381	92220
1	17065738	382	89570
1	17114243	383	92273
1	17161777	384	89729
1	17210151	385	92273
1	17258097	386	90577
1	17306078	387	91690
1	17354182	388	90471
1	17402166	389	90047
1	17450042	390	91054
1	17498007	391	91160
1	17545863	392	89994
1	17593770	393	90895
1	17641992	394	92008
1	17689511	395	89729
1	17737256	396	89835
1	17786050	397	92962
1	17833889	398	90365
1	17881599	399	90047
1	17930234	400	92432
1	17977414	401	88298
1	18025477	402	90259
1	18073541	403	92962
1	18121483	404	89252
1	18169362	405	91001
1	18217689	406	92220
1	18265771	407	91690
1	18313408	408	89570
1	18361651	409	91531
1	18410192	410	92114
1	18457267	411	88563
1	18505542	412	90736
1	18553899	413	92538
1	18601589	414	90206
1	18649623	415	90365
1	18697690	416	91531
1	18745588	417	90789
1	18793557	418	91425
1	18841847	419	90736
1	18889544	420	89835
1	18937512	421	90206
1	18985839	422	92697
1	19033393	423	89305
1	19081382	424	90365
1	19129871	425	92803
1	19177547	426	89358
1	19225372	427	89888
1	19273151	428	90736
1	19321919	429	93704
1	19369529	430	88669
1	19417851	431	91796
1	19465624	432	90630
1	19513309	433	90736
1	19561672	434	91266
1	19610054	435	93015
1	19657612	436	88669
1	19705782	437	90524
1	19753878	438	91902
1	19801668	439	90206
1	19849821	440	91425
1	19898022	441	91584
1	19945512	442	88722
1	19993713	443	91796
1	20041518	444	90471
1	20090251	445	93068
1	20137951	446	90524
1	20186217	447	90842
1	20233879	448	90259
1	20282137	449	90948
1	20329972	450	91319
1	20377702	451	89305
1	20426216	452	92697
1	20473960	453	89994
1	20521746	454	90524
1	20570429	455	92326
1	20617891	456	88563
1	20666192	457	92167
1	20713713	458	89941
1	20761265	459	89570
1	20809928	460	92220
1	20857829	461	90577
1	20905326	462	89570
1	20953729	463	92220
1	21001096	464	88351
1	21050055	465	95241
1	21097741	466	89093
1	21145498	467	90047
1	21193584	468	91584
1	21242057	469	91266
1	21289467	470	89676
1	21337863	471	92962
1	21385664	472	89358
1	21433961	473	92008
1	21481940	474	91213
1	21530238	475	90524
1	21577833	476	90418
1	21626014	477	91849
1	21674042	478	90948
1	21722285	479	92379
1	21769851	480	88510
1	21817412	481	89994
1	21866232	482	92750
1	21914147	483	90418
1	21962167	484	90789
1	22009781	485	90577
1	22057707	486	90630
1	22105398	487	89146
1	22153383	488	91531
1	22201259	489	90471
1	22249416	490	90100
1	22297776	491	92485
1	22345892	492	91372
1	22393356	493	88987
1	22442080	494	93757
1	22488962	495	87185
1	22537225	496	91796
1	22585769	497	92432
1	22633657	498	90630
1	22681903	499	91001
1	22730085	500	92432
1	22777960	501	90153
1	22826214	502	91001
1	22873666	503	90365
1	22922535	504	93439
1	22970281	505	90206
1	23018299	506	89835
1	23066189	507	90895
1	23114435	508	92273
1	23162683	509	92114
1	23210660	510	90577
1	23258486	511	90312
1	23306875	512	91902
1	23354463	513	89517
1	23402490	514	91478
1	23451203	515	91796
1	23498403	516	89358
1	23546709	517	91743
1	23595018	518	92591
1	23643208	519	90948
1	23690947	520	89994
1	23738819	521	90047
1	23786933	522	91213
1	23835122	523	90895
1	23882984	524	90736
1	23930870	525	90312
1	23979061	526	92962
1	24027330	527	90789
1	24074982	528	89888
1	24123330	529	92273
1	24171307	530	89835
1	24219154	531	91001
1	24266787	532	90100
1	24315410	533	91902
1	24362835	534	89146
1	24410693	535	91213
1	24458911	536	91054
1	24506296	537	88987
1	24554365	538	91637
1	24602965	539	92538
1	24650513	540	89093
1	24698527	541	91213
1	24746289	542	90895
1	24794153	543	90418
1	24843127	544	92273
1	24891018	545	91319
1	24938608	546	90047
1	24986334	547	90153
1	25034653	548	91054
1	25082891	549	92697
1	25130433	550	89517
1	25177878	551	88934
1	25226293	552	91743
1	25274549	553	91743
1	25322034	554	88881
1	25370401	555	91796
1	25418594	556	91955
1	25466642	557	90100
1	25513999	558	89517
1	25562359	559	92379
1	25610576	560	90948
1	25658202	561	90047
1	25706082	562	91001
1	25754854	563	91213
1	25802653	564	90524
1	25850255	565	90365
1	25898621	566	92326
1	25946783	567	91107
1	25994918	568	91213
1	26042695	569	89570
1	26090193	570	90206
1	26138784	571	91955
1	26186459	572	89464
1	26234201	573	90842
1	26282646	574	92538
1	26330866	575	91743
1	26379031	576	90948
1	26426889	577	90153
1	26474734	578	89941
1	26522858	579	91054
1	26570943	580	90683
1	26618733	581	90312
1	26666533	582	89729
1	26714830	583	93545
1	26762698	584	89782
1	26810710	585	90312
1	26859019	586	92220
1	26906803	587	89676
1	26954553	588	90365
1	27002853	589	92220
1	27050695	590	90047
1	27099103	591	91849
1	27146988	592	91743
1	27195015	593	90683
1	27242947	594	89305
1	27291070	595	91743
1	27339210	596	91425
1	27387316	597	90789
1	27435107	598	90047
1	27483079	599	90895
1	27531311	600	91478
1	27578904	601	90471
1	27626869	602	90630
1	27675236	603	90577
1	27723279	604	91902
1	27771140	605	90365
1	27819679	606	92909
1	27867515	607	90206
1	27915385	608	89994
1	27962870	609	90259
1	28010860	610	90206
1	28058946	611	90683
1	28107260	612	92379
1	28155640	613	91955
1	28203632	614	90683
1	28251110	615	88987
1	28300062	616	94022
1	28347714	617	90524
1	28395764	618	89729
1	28443531	619	90842
1	28491343	620	90365
1	28539081	621	89888
1	28587568	622	92114
1	28635194	623	89517
1	28683380	624	91584
1	28731517	625	92114
1	28779411	626	90895
1	28827789	627	92061
1	28875635	628	89835
1	28923438	629	89782
1	28971852	630	92591
1	29020073	631	91478
1	29067735	632	90524
1	29115786	633	90100
1	29164049	634	91743
1	29211925	635	91531
1	29260165	636	92061
1	29308450	637	91160
1	29356144	638	90471
1	29403857	639	90206
1	29452535	640	91743
1	29499704	641	88987
1	29547753	642	89888
1	29596186	643	93492
1	29644080	644	91001
1	29691833	645	88775
1	29739915	646	91796
1	29787720	647	90047
1	29835707	648	90789
1	29883484	649	90842
1	29931381	650	90683
1	29979003	651	89411
1	30027967	652	93598
1	30075742	653	90259
1	30123390	654	89040
1	30171526	655	91107
1	30219753	656	92750
1	30268191	657	90789
1	30315424	658	89093
1	30363239	659	90736
1	30411699	660	91160
1	30459645	661	91690
1	30507788	662	90577
1	30554691	663	88775
1	30603536	664	92379
1	30651653	665	91584
1	30699394	666	89782
1	30746918	667	90206
1	30794903	668	88722
1	30843022	669	91584
1	30890706	670	91743
1	30939464	671	91213
1	30986871	672	91266
1	31034758	673	89252
1	31082771	674	91372
1	31130714	675	90524
1	31178229	676	89941
1	31226679	677	91796
1	31274770	678	91266
1	31322892	679	90789
1	31370741	680	91001
1	31419109	681	92061
1	31467182	682	90948
1	31515119	683	89782
1	31563492	684	93280
1	31611975	685	91213
1	31659616	686	91107
1	31707688	687	90948
1	31755081	688	89941
1	31803303	689	90153
1	31850951	690	89941
1	31899813	691	93757
1	31947180	692	88828
1	31995664	693	91955
1	32043459	694	89676
1	32091432	695	91796
1	32138933	696	89040
1	32187290	697	91955
1	32235255	698	91160
1	32283636	699	92538
1	32331388	700	89676
1	32379396	701	91955
1	32427799	702	90842
1	32475571	703	90047
1	32522987	704	89835
1	32571161	705	91213
1	32619383	706	90736
1	32667462	707	91372
1	32715575	708	91372
1	32763703	709	91266
1	32811472	710	90047
1	32859480	711	91001
1	32907649	712	90789
1	32955427	713	89358
1	33003127	714	90312
1	33051586	715	92538
1	33099716	716	93174
1	33147823	717	89040
1	33195686	718	90365
1	33243639	719	90577
1	33291088	720	89941
1	33339620	721	91955
1	33386912	722	89464
1	33435561	723	91902
1	33483117	724	90895
1	33531286	725	90471
1	33578795	726	89570
1	33627292	727	92644
1	33675201	728	90524
1	33723448	729	91902
1	33771592	730	91902
1	33819161	731	88669
1	33867648	732	92326
1	33915883	733	91955
1	33963517	734	89464
1	34011534	735	90153
1	34059618	736	92538
1	34107438	737	90312
1	34155661	738	91531
1	34203667	739	90736
1	34251778	740	91902
1	34299610	741	90312
1	34347625	742	90630
1	34395722	743	91160
1	34443711	744	90259
1	34491456	745	91213
1	34539402	746	90471
1	34587532	747	91372
1	34635448	748	90895
1	34683330	749	89888
1	34731357	750	90842
1	34779470	751	90312
1	34827388	752	91584
1	34875929	753	92167
1	34923355	754	88934
1	34971418	755	90577
1	35019741	756	92220
1	35068219	757	93015
1	35115104	758	87026
1	35163322	759	91213
1	35211044	760	90153
1	35259464	761	92008
1	35307432	762	90471
1	35355321	763	89835
1	35403005	764	90895
1	35451006	765	90418
1	35498941	766	91584
1	35547347	767	92220
1	35595373	768	90418
1	35643747	769	92273
1	35691265	770	88934
1	35739760	771	92591
1	35787304	772	89941
1	35835363	773	90630
1	35883509	774	90471
1	35930966	775	91001
1	35978992	776	90259
1	36027083	777	91213
1	36074922	778	90418
1	36123391	779	91849
1	36171519	780	91054
1	36219005	781	90153
1	36267136	782	91001
1	36315020	783	90471
1	36363392	784	91637
1	36411436	785	90312
1	36459195	786	91160
1	36507433	787	91955
1	36554509	788	88404
1	36602568	789	90789
1	36651048	790	92061
1	36699205	791	91478
1	36746904	792	90100
1	36795014	793	90683
1	36843054	794	91054
1	36890904	795	90789
1	36938898	796	90365
1	36987168	797	92061
1	37034905	798	90471
1	37083023	799	90948
1	37131612	800	91054
1	37178623	801	88987
1	37227205	802	93280
1	37275407	803	90524
1	37323323	804	90895
1	37371877	805	92379
1	37418989	806	88351
1	37466905	807	90259
1	37515242	808	92008
1	37563320	809	90365
1	37611346	810	92220
1	37659283	811	90100
1	37706979	812	90895
1	37755674	813	91902
1	37803568	814	89994
1	37851650	815	92167
1	37899541	816	90047
1	37947666	817	91054
1	37995189	818	90365
1	38043903	819	93068
1	38091528	820	89782
1	38139542	821	91531
1	38188012	822	92273
1	38236141	823	91372
1	38284378	824	91160
1	38332315	825	90471
1	38380981	826	91796
1	38428447	827	90842
1	38476829	828	91319
1	38524316	829	89358
1	38573212	830	93916
1	38620710	831	89305
1	38668656	832	91266
1	38716702	833	89888
1	38765104	834	92697
1	38812747	835	89729
1	38861009	836	91001
1	38908978	837	90842
1	38957342	838	92432
1	39004919	839	89464
1	39053017	840	90895
1	39101202	841	91584
1	39149510	842	91955
1	39197467	843	91213
1	39245338	844	90100
1	39293300	845	90630
1	39341540	846	91213
1	39389246	847	90948
1	39437623	848	91902
1	39484862	849	87980
1	39533552	850	93227
1	39581616	851	90895
1	39629303	852	90895
1	39678132	853	92061
1	39725555	854	89729
1	39773749	855	90524
1	39822141	856	93015
1	39869921	857	88616
1	39917411	858	90100
1	39965858	859	92220
1	40013487	860	89782
1	40061910	861	93015
1	40110202	862	91690
1	40158475	863	90736
1	40206200	864	89888
1	40254252	865	91319
1	40302008	866	90736
1	40349789	867	89676
1	40398398	868	92485
1	40446047	869	90789
1	40494404	870	91160
1	40542165	871	90153
1	40590100	872	90630
1	40638498	873	91478
1	40686301	874	90683
1	40734530	875	91372
1	40782545	876	91637
1	40830316	877	91054
1	40878545	878	91160
1	40925851	879	88457
1	40973827	880	91372
1	41021881	881	90524
1	41070369	882	92591
1	41118273	883	90736
1	41166129	884	89570
1	41214157	885	91372
1	41261961	886	90577
1	41309876	887	90577
1	41358040	888	90789
1	41405992	889	91160
1	41454178	890	91531
1	41501873	891	89941
1	41549633	892	90259
1	41598287	893	92379
1	41646030	894	90365
1	41694556	895	91531
1	41742266	896	89782
1	41790350	897	91319
1	41838131	898	90948
1	41886466	899	91054
1	41934566	900	91690
1	41982978	901	91902
1	42030387	902	88828
1	42078285	903	90047
1	42126597	904	92220
1	42174201	905	89994
1	42222766	906	92485
1	42270069	907	88722
1	42318561	908	91266
1	42366283	909	90418
1	42414420	910	90895
1	42462308	911	90948
1	42510869	912	92591
1	42557959	913	87079
1	42606828	914	93969
1	42654372	915	89305
1	42701480	916	88775
1	42750059	917	91796
1	42798118	918	91584
1	42845641	919	89994
1	42893669	920	90206
1	42941753	921	91531
1	42989398	922	89464
1	43037855	923	92697
1	43085351	924	88245
1	43133505	925	92008
1	43182087	926	92591
1	43229661	927	89305
1	43277757	928	90948
1	43325652	929	91266
1	43373644	930	90206
1	43421280	931	89199
1	43469421	932	91372
1	43517536	933	91372
1	43565962	934	92167
1	43614072	935	90842
1	43661822	936	90577
1	43709606	937	90100
1	43757776	938	90683
1	43805988	939	91637
1	43854154	940	91690
1	43902275	941	90259
1	43949864	942	91425
1	43997736	943	89570
1	44045993	944	91425
1	44093978	945	91266
1	44141910	946	90471
1	44190169	947	90948
1	44237628	948	89676
1	44286092	949	91902
1	44334141	950	91478
1	44382115	951	91107
1	44429706	952	89252
1	44477936	953	91796
1	44526093	954	91266
1	44574170	955	91266
1	44622098	956	90418
1	44670312	957	91372
1	44718393	958	90153
1	44765973	959	90312
1	44814261	960	91955
1	44862501	961	91107
1	44910153	962	89676
1	44958263	963	91637
1	45006310	964	91054
1	45054099	965	90630
1	45101969	966	89941
1	45149697	967	90100
1	45197850	968	91902
1	45245990	969	90524
1	45294188	970	91160
1	45342249	971	90736
1	45390025	972	90789
1	45437975	973	90365
1	45485725	974	89888
1	45533533	975	90047
1	45581472	976	90789
1	45629710	977	91054
1	45676700	978	88086
1	45725152	979	92485
1	45773003	980	90153
1	45820848	981	90630
1	45869255	982	90948
1	45917557	983	92379
1	45965310	984	89888
1	46013127	985	91319
1	46061471	986	90948
1	46108777	987	89464
1	46157259	988	92326
1	46205039	989	89411
1	46253319	990	91637
1	46301283	991	91107
1	46348942	992	89888
1	46396893	993	90948
1	46445142	994	91001
1	46492977	995	90259
1	46540581	996	91107
1	46588836	997	90206
1	46637207	998	91743
1	46684673	999	90471
1	46732975	1000	91955
1	46781148	1001	90789
1	46829104	1002	92008
1	46877349	1003	90524
1	46925106	1004	90418
1	46973257	1005	90683
1	47021370	1006	91796
1	47069192	1007	90100
1	47117475	1008	91690
1	47165418	1009	90895
1	47213621	1010	91690
1	47261526	1011	89570
1	47309902	1012	91690
1	47357752	1013	91372
1	47405753	1014	89994
1	47453533	1015	90630
1	47501238	1016	90047
1	47549668	1017	92061
1	47597781	1018	91001
1	47645258	1019	89835
1	47693457	1020	90683
1	47741449	1021	92008
1	47788870	1022	88457
1	47837891	1023	94499
1	47885939	1024	90789
1	47933807	1025	90153
1	47981827	1026	91743
1	48030227	1027	91001
1	48078366	1028	91213
1	48125727	1029	89676
1	48173667	1030	91319
1	48221875	1031	90630
1	48269682	1032	91213
1	48317865	1033	90842
1	48366539	1034	92008
1	48413314	1035	87927
1	48461672	1036	92167
1	48509534	1037	90206
1	48557599	1038	91425
1	48606148	1039	92008
1	48653699	1040	89941
1	48702250	1041	91955
1	48749819	1042	90471
1	48797735	1043	89517
1	48846170	1044	91796
1	48894562	1045	93333
1	48942285	1046	89570
1	48990026	1047	89623
1	49038341	1048	91902
1	49086146	1049	90524
1	49133746	1050	90577
1	49181919	1051	89570
1	49229182	1052	89994
1	49277235	1053	91054
1	49325546	1054	91531
1	49373972	1055	92750
1	49421753	1056	89411
1	49470601	1057	93015
1	49518321	1058	89570
1	49566048	1059	90736
1	49614074	1060	90683
1	49661683	1061	89888
1	49710441	1062	92750
1	49758122	1063	90100
1	49806030	1064	90259
1	49854469	1065	91955
1	49902061	1066	90206
1	49950137	1067	91637
1	49998003	1068	90471
1	50046203	1069	91001
1	50093651	1070	88510
1	50141547	1071	91001
1	50189941	1072	91637
1	50237911	1073	89729
1	50286007	1074	92061
1	50334270	1075	90948
1	50382104	1076	90842
1	50430331	1077	91478
1	50478472	1078	91107
1	50526252	1079	89570
1	50573797	1080	90418
1	50622041	1081	90948
1	50670075	1082	90789
1	50717649	1083	90736
1	50766242	1084	91955
1	50814341	1085	91213
1	50861857	1086	89252
1	50910067	1087	91743
1	50958120	1088	91531
1	51005874	1089	89464
1	51054104	1090	91107
1	51102486	1091	91637
1	51150348	1092	91531
1	51198382	1093	90365
1	51246487	1094	91478
1	51294528	1095	90789
1	51342887	1096	91372
1	51390719	1097	90948
1	51438401	1098	90418
1	51486779	1099	91213
1	51534503	1100	90153
1	51582458	1101	91531
1	51630350	1102	89623
1	51678580	1103	91213
1	51726750	1104	91319
1	51774163	1105	89411
1	51822176	1106	90789
1	51870239	1107	91796
1	51917960	1108	89517
1	51966525	1109	93015
1	52014349	1110	90842
1	52062413	1111	90577
1	52110013	1112	90047
1	52158431	1113	91902
1	52206160	1114	90365
1	52254765	1115	92750
1	52301921	1116	88563
1	52350721	1117	92432
1	52398609	1118	91054
1	52446125	1119	88563
1	52494319	1120	91796
1	52542767	1121	91796
1	52589669	1122	87397
1	52638095	1123	92803
1	52686048	1124	89941
1	52734658	1125	92750
1	52781662	1126	88086
1	52830389	1127	92591
1	52878043	1128	89835
1	52926218	1129	92220
1	52973519	1130	87768
1	53022080	1131	92803
1	53070138	1132	90736
1	53118089	1133	90683
1	53166005	1134	91107
1	53214074	1135	90736
1	53261688	1136	89464
1	53309693	1137	90577
1	53357889	1138	91849
1	53405381	1139	88934
1	53453694	1140	92326
1	53501414	1141	89517
1	53549611	1142	91902
1	53597472	1143	90312
1	53645602	1144	91213
1	53693959	1145	92379
1	53741988	1146	90630
1	53790297	1147	91584
1	53838120	1148	89941
1	53886367	1149	91955
1	53934130	1150	91160
1	53982511	1151	90630
1	54030395	1152	90683
1	54078844	1153	91372
1	54126973	1154	91054
1	54174583	1155	90683
1	54222670	1156	90206
1	54270470	1157	91054
1	54319049	1158	93227
1	54367280	1159	89994
1	54415033	1160	90842
1	54462972	1161	90736
1	54510861	1162	90259
1	54559228	1163	92061
1	54606963	1164	90100
1	54654793	1165	90577
1	54703129	1166	91001
1	54751139	1167	91425
1	54799100	1168	90312
1	54847030	1169	91213
1	54894866	1170	89835
1	54943023	1171	91955
1	54991369	1172	91213
1	55039047	1173	90418
1	55087370	1174	91319
1	55135750	1175	92114
1	55183849	1176	92061
1	55231693	1177	89623
1	55279633	1178	91160
1	55327958	1179	90842
1	55375962	1180	91955
1	55424433	1181	91266
1	55471639	1182	88987
1	55519948	1183	91266
1	55568254	1184	92379
1	55616111	1185	90577
1	55664327	1186	90948
1	55712385	1187	90153
1	55760154	1188	91266
1	55808339	1189	90577
1	55856510	1190	91849
1	55904730	1191	90471
1	55952442	1192	91001
1	55999955	1193	88510
1	56048649	1194	92750
1	56096562	1195	90312
1	56144342	1196	90736
1	56191711	1197	89199
1	56240513	1198	92379
1	56288000	1199	89676
1	56336448	1200	92220
1	56384491	1201	90524
1	56432590	1202	90842
1	56481078	1203	93121
1	56528841	1204	89464
1	56576388	1205	89729
1	56624732	1206	91743
1	56672635	1207	91160
1	56720803	1208	90948
1	56768875	1209	91160
1	56816827	1210	89623
1	56864743	1211	92856
1	56912187	1212	88298
1	56960277	1213	90842
1	57008228	1214	91531
1	57056597	1215	91743
1	57105020	1216	91584
1	57152739	1217	89570
1	57200754	1218	91319
1	57248318	1219	89676
1	57296570	1220	90842
1	57344781	1221	92167
1	57392791	1222	90789
1	57440310	1223	90789
1	57488577	1224	89835
1	57536613	1225	91319
1	57584967	1226	92856
1	57632618	1227	88616
1	57680171	1228	90577
1	57728505	1229	92273
1	57776505	1230	89464
1	57824660	1231	91425
1	57872338	1232	89782
1	57920304	1233	91372
1	57968357	1234	90842
1	58015797	1235	89358
1	58063894	1236	91372
1	58111810	1237	89941
1	58159854	1238	91319
1	58208508	1239	92856
1	58255826	1240	88828
1	58303921	1241	91319
1	58351797	1242	90577
1	58399932	1243	91584
1	58448118	1244	91213
1	58496420	1245	91743
1	58544398	1246	90524
1	58592149	1247	90418
1	58640116	1248	91107
1	58688500	1249	91266
1	58736490	1250	91584
1	58784164	1251	89941
1	58832474	1252	92538
1	58880389	1253	89941
1	58928645	1254	90789
1	58976758	1255	92326
1	59024853	1256	90259
1	59071734	1257	87874
1	59120054	1258	92114
1	59168048	1259	91743
1	59215867	1260	88775
1	59264044	1261	92432
1	59311732	1262	89358
1	59359635	1263	91213
1	59408338	1264	92220
1	59455954	1265	90418
1	59504150	1266	90471
1	59552150	1267	92273
1	59600247	1268	89941
1	59648482	1269	92326
1	59696312	1270	91160
1	59744202	1271	88510
1	59792138	1272	91478
1	59840272	1273	91107
1	59888134	1274	90683
1	59936828	1275	92379
1	59984621	1276	90842
1	60032510	1277	90418
1	60079917	1278	89464
1	60128401	1279	92167
1	60176249	1280	89517
1	60224081	1281	91213
1	60272677	1282	92061
1	60320430	1283	89570
1	60368551	1284	92273
1	60416446	1285	89517
1	60464496	1286	91743
1	60512390	1287	90577
1	60561350	1288	93704
1	60608678	1289	87874
1	60657103	1290	92697
1	60704370	1291	88404
1	60752596	1292	91531
1	60800210	1293	88881
1	60848506	1294	92538
1	60896081	1295	88987
1	60944470	1296	92432
1	60992899	1297	91849
1	61040659	1298	89888
1	61088645	1299	90524
1	61136198	1300	89676
1	61184304	1301	90948
1	61232499	1302	91637
1	61280633	1303	91001
1	61328134	1304	90577
1	61376191	1305	89517
1	61424027	1306	90312
1	61472048	1307	91531
1	61520068	1308	90895
1	61567853	1309	90259
1	61615837	1310	90842
1	61663902	1311	91637
1	61712035	1312	91213
1	61759657	1313	89835
1	61808585	1314	93015
1	61856287	1315	89994
1	61904001	1316	89941
1	61952446	1317	91584
1	61999852	1318	89729
1	62048130	1319	92061
1	62096243	1320	90577
1	62144166	1321	90577
1	62191684	1322	90736
1	62240227	1323	91160
1	62288055	1324	90047
1	62335892	1325	90736
1	62384105	1326	91001
1	62432082	1327	91372
1	62480019	1328	89729
1	62528108	1329	91478
1	62575811	1330	89888
1	62624117	1331	91902
1	62671907	1332	90842
1	62719938	1333	90047
1	62767929	1334	91319
1	62815652	1335	90418
1	62863610	1336	90789
1	62912158	1337	91266