version 2
run QLearnCC-5-20100707-11:44:47-3708
attr alpha 0.1
attr configname QLearnCC
attr datetime 20100707-11:44:47
attr epsilon 0.01
attr experiment QLearnCC
attr inifile D:/Developement/Oversim2/multic/simulations/omnetpp.ini
attr iterationvars "$alpha=0.1, $lamda=1.0, $reinfup=0.4, $epsilon=0.01"
attr iterationvars2 "$alpha=0.1, $lamda=1.0, $reinfup=0.4, $epsilon=0.01, $repetition=0"
attr lamda 1.0
attr measurement "$alpha=0.1, $lamda=1.0, $reinfup=0.4, $epsilon=0.01"
attr network oversim.underlay.simpleunderlay.SimpleUnderlayNetwork
attr processid 3708
attr reinfup 0.4
attr repetition 0
attr replication #0
attr resultdir results
attr runnumber 5
attr seedset 5

vector 1  SimpleUnderlayNetwork.globalObserver.globalStatistics  incoming_bytes  ETV
vector 2  SimpleUnderlayNetwork.globalObserver.globalStatistics  drops  ETV
vector 3  SimpleUnderlayNetwork.globalObserver.globalStatistics  9rateOf1To0  ETV
vector 4  SimpleUnderlayNetwork.globalObserver.globalStatistics  max9RateOf1To0  ETV
vector 5  SimpleUnderlayNetwork.globalObserver.globalStatistics  9rateOf1To1  ETV
vector 6  SimpleUnderlayNetwork.globalObserver.globalStatistics  max9RateOf1To1  ETV
vector 7  SimpleUnderlayNetwork.globalObserver.globalStatistics  9rateOf1To2  ETV
vector 8  SimpleUnderlayNetwork.globalObserver.globalStatistics  max9RateOf1To2  ETV
vector 9  SimpleUnderlayNetwork.globalObserver.globalStatistics  9rateOf1To3  ETV
vector 10  SimpleUnderlayNetwork.globalObserver.globalStatistics  max9RateOf1To3  ETV
vector 11  SimpleUnderlayNetwork.globalObserver.globalStatistics  9rateOf1To4  ETV
vector 12  SimpleUnderlayNetwork.globalObserver.globalStatistics  max9RateOf1To4  ETV
vector 13  SimpleUnderlayNetwork.globalObserver.globalStatistics  9rateOf1To5  ETV
vector 14  SimpleUnderlayNetwork.globalObserver.globalStatistics  max9RateOf1To5  ETV
vector 15  SimpleUnderlayNetwork.globalObserver.globalStatistics  9rateOf1To6  ETV
vector 16  SimpleUnderlayNetwork.globalObserver.globalStatistics  max9RateOf1To6  ETV
vector 17  SimpleUnderlayNetwork.globalObserver.globalStatistics  9rateOf1To7  ETV
vector 18  SimpleUnderlayNetwork.globalObserver.globalStatistics  max9RateOf1To7  ETV
vector 19  SimpleUnderlayNetwork.globalObserver.globalStatistics  9rateOf1To8  ETV
vector 20  SimpleUnderlayNetwork.globalObserver.globalStatistics  max9RateOf1To8  ETV
vector 21  SimpleUnderlayNetwork.globalObserver.globalStatistics  9rateOf1To9  ETV
vector 22  SimpleUnderlayNetwork.globalObserver.globalStatistics  max9RateOf1To9  ETV
vector 23  SimpleUnderlayNetwork.globalObserver.globalStatistics  1rate  ETV
vector 24  SimpleUnderlayNetwork.globalObserver.globalStatistics  max2Rate  ETV
vector 25  SimpleUnderlayNetwork.globalObserver.globalStatistics  "GlobalNodeList: Number of nodes"  ETV
vector 26  SimpleUnderlayNetwork.globalObserver.globalStatistics  "GlobalNodeList: Number of bootstrapped malicious nodes"  ETV
1	4427875	119	91637
1	4475660	120	89888
1	4523433	121	89729
1	4571710	122	92644
1	4619277	123	88987
1	4667595	124	92167
1	4715229	125	88775
1	4763427	126	92326
1	4811620	127	90365
1	4859640	128	91001
1	4907322	129	89411
1	4955478	130	91796
1	5003294	131	89676
1	5051220	132	90471
1	5099048	133	91001
1	5147003	134	89676
1	5194859	135	90842
1	5243220	136	92061
1	5290851	137	89676
1	5338595	138	90471
1	5386612	139	90365
1	5434942	140	91531
1	5482895	141	90683
1	5531020	142	91425
1	5579151	143	90206
1	5626385	144	89729
1	5674854	145	91425
1	5722392	146	89358
1	5770668	147	91107
1	5817939	148	89517
1	5865856	149	90047
1	5913843	150	92114
1	5961202	151	88245
1	6009434	152	91478
1	6057003	153	89464
1	6105243	154	90895
1	6153427	155	92591
1	6201358	156	89676
1	6249132	157	89941
1	6297177	158	91690
1	6344817	159	88722
1	6392369	160	89782
1	6440247	161	90047
1	6488403	162	91902
1	6536396	163	90206
1	6584354	164	91531
1	6632576	165	91372
1	6680246	166	88722
1	6727431	167	88775
1	6775936	168	92697
1	6823489	169	89835
1	6871175	170	89517
1	6919464	171	90895
1	6967446	172	91955
1	7015252	173	90577
1	7063069	174	88722
1	7111006	175	90312
1	7158643	176	89676
1	7206789	177	92008
1	7254423	178	89358
1	7302393	179	90683
1	7349982	180	90789
1	7398321	181	90789
1	7446387	182	90524
1	7493866	183	89676
1	7541706	184	90789
1	7590307	185	92803
1	7637465	186	87238
1	7685867	187	92167
1	7733612	188	90259
1	7781937	189	91796
1	7830314	190	90948
1	7878387	191	93492
1	7926130	192	89676
1	7973990	193	90789
1	8022167	194	89676
1	8069475	195	88404
1	8117707	196	91849
1	8165426	197	90365
1	8213318	198	90577
1	8261285	199	89994
1	8309057	200	89835
1	8357212	201	92909
1	8404963	202	89888
1	8453056	203	88298
1	8501091	204	92326
1	8548599	205	90259
1	8596436	206	89888
1	8644612	207	91849
1	8691966	208	87927
1	8739473	209	89941
1	8787104	210	89729
1	8835698	211	93492
1	8883634	212	89252
1	8931298	213	90418
1	8979121	214	89888
1	9026968	215	91001
1	9074778	216	89994
1	9122876	217	90365
1	9170607	218	90736
1	9218532	219	89994
1	9266864	220	92273
1	9314628	221	88086
1	9362395	222	91213
1	9410496	223	91107
1	9457929	224	88510
1	9506126	225	91690
1	9554402	226	92061
1	9602057	227	89570
1	9650387	228	92167
1	9698152	229	89994
1	9746489	230	91637
1	9794448	231	90630
1	9842566	232	91266
1	9890282	233	89570
1	9938411	234	91054
1	9986282	235	91054
1	10034121	236	89729
1	10082858	237	92856
1	10130440	238	90047
1	10178406	239	89358
1	10225758	240	89146
1	10274120	241	92803
1	10321762	242	89146
1	10369547	243	91955
1	10417639	244	89464
1	10465734	245	91160
1	10513267	246	89146
1	10561506	247	92379
1	10609053	248	89570
1	10656454	249	87397
1	10704644	250	92750
1	10752438	251	89358
1	10800842	252	92644
1	10848548	253	90365
1	10896298	254	90100
1	10944455	255	91160
1	10992616	256	91690
1	11040066	257	88404
1	11087945	258	90524
1	11136611	259	92803
1	11184029	260	88192
1	11232311	261	92750
1	11280110	262	88987
1	11328317	263	92061
1	11375973	264	89835
1	11423871	265	89782
1	11471806	266	91213
1	11520012	267	91425
1	11568334	268	91743
1	11615634	269	88457
1	11663723	270	91372
1	11711776	271	91266
1	11759603	272	89835
1	11808006	273	92803
1	11855652	274	89517
1	11903818	275	90259
1	11951930	276	91955
1	11999833	277	89941
1	12047520	278	91160
1	12095578	279	89782
1	12143571	280	91849
1	12191379	281	89623
1	12239035	282	89994
1	12287168	283	90736
1	12334777	284	91001
1	12383451	285	91955
1	12431323	286	89888
1	12479162	287	90471
1	12527030	288	89782
1	12575511	289	94022
1	12623166	290	87715
1	12671050	291	91160
1	12718595	292	88669
1	12766617	293	91584
1	12814857	294	91001
1	12862540	295	90047
1	12910106	296	89199
1	12958263	297	91690
1	13006482	298	92167
1	13054046	299	89676
1	13102547	300	92220
1	13150864	301	91372
1	13198353	302	89305
1	13246143	303	89941
1	13294561	304	91107
1	13342248	305	91584
1	13390209	306	88987
1	13438102	307	90630
1	13485816	308	90047
1	13533727	309	90736
1	13581718	310	90365
1	13629393	311	90312
1	13677118	312	90312
1	13725505	313	91160
1	13773361	314	89517
1	13821228	315	90471
1	13868961	316	91054
1	13917021	317	90259
1	13965141	318	90312
1	14012613	319	90789
1	14060960	320	89570
1	14108596	321	91478
1	14156804	322	91690
1	14204645	323	90312
1	14252569	324	89623
1	14300506	325	91743
1	14348408	326	89040
1	14396103	327	90312
1	14444649	328	93333
1	14492717	329	90524
1	14540109	330	88669
1	14588097	331	91107
1	14636489	332	90895
1	14683850	333	88881
1	14731848	334	90365
1	14779993	335	90683
1	14828147	336	92167
1	14876088	337	89888
1	14923524	338	90736
1	14972059	339	91266
1	15019926	340	89411
1	15067674	341	91584
1	15115778	342	90100
1	15163802	343	92856
1	15211749	344	87874
1	15259730	345	91107
1	15307441	346	90259
1	15355515	347	91425
1	15403092	348	88722
1	15450913	349	90683
1	15499426	350	92220
1	15547166	351	90789
1	15595031	352	88033
1	15642535	353	90365
1	15690724	354	91319
1	15738845	355	91160
1	15786719	356	91743
1	15834536	357	90524
1	15883114	358	90683
1	15930750	359	90259
1	15979261	360	92061
1	16027233	361	90312
1	16075135	362	90736
1	16123141	363	90630
1	16170675	364	89517
1	16218818	365	91849
1	16266490	366	88987
1	16314706	367	92220
1	16362529	368	90047
1	16410795	369	91372
1	16458407	370	88934
1	16506450	371	92114
1	16553961	372	88298
1	16602129	373	91955
1	16650572	374	91001
1	16698028	375	89676
1	16746042	376	91213
1	16793995	377	91107
1	16841825	378	89464
1	16889989	379	90259
1	16937584	380	91213
1	16986086	381	92803
1	17032975	382	86602
1	17081898	383	93333
1	17129390	384	89729
1	17177414	385	90736
1	17225825	386	92485
1	17274031	387	91425
1	17321912	388	90312
1	17369561	389	89305
1	17417935	390	93333
1	17466033	391	90683
1	17513982	392	91531
1	17562117	393	89888
1	17609518	394	88934
1	17657159	395	90789
1	17705467	396	91425
1	17753492	397	90153
1	17801166	398	90365
1	17849430	399	91690
1	17897087	400	89941
1	17944604	401	89570
1	17992204	402	88616
1	18040813	403	93333
1	18088680	404	90418
1	18136662	405	91531
1	18184927	406	89676
1	18232074	407	90206
1	18280193	408	89835
1	18328448	409	92061
1	18376142	410	89623
1	18424484	411	92220
1	18472341	412	88828
1	18520232	413	91690
1	18567807	414	89464
1	18616270	415	91266
1	18664007	416	91584
1	18711665	417	88457
1	18760103	418	93598
1	18807243	419	88351
1	18855343	420	90471
1	18903078	421	90365
1	18951502	422	91955
1	18998767	423	88669
1	19047179	424	91478
1	19095034	425	89729
1	19142966	426	91266
1	19190920	427	91160
1	19239365	428	92008
1	19286779	429	87609
1	19335398	430	93174
1	19382873	431	90312
1	19430898	432	90153
1	19478684	433	89623
1	19526514	434	90630
1	19574946	435	92962
1	19623106	436	90418
1	19670714	437	89517
1	19718536	438	89146
1	19766786	439	94075
1	19814499	440	88086
1	19863096	441	92803
1	19910829	442	89570
1	19958513	443	90047
1	20006809	444	90895
1	20054734	445	92326
1	20102231	446	86973
1	20150741	447	94658
1	20198559	448	89146
1	20246575	449	91849
1	20294495	450	90471
1	20342584	451	91213
1	20390071	452	89040
1	20438208	453	91001
1	20486006	454	90471
1	20533941	455	91054
1	20581934	456	90365
1	20630343	457	91372
1	20678573	458	92591
1	20726154	459	88934
1	20774242	460	90683
1	20821823	461	89835
1	20869825	462	90365
1	20917909	463	92644
1	20966050	464	89623
1	21013852	465	89941
1	21061955	466	93386
1	21109284	467	87397
1	21157616	468	90948
1	21205410	469	91796
1	21253043	470	88139
1	21300863	471	91584
1	21349481	472	92379
1	21397106	473	88881
1	21445064	474	90630
1	21493055	475	90312
1	21540808	476	91425
1	21588861	477	91160
1	21637080	478	91054
1	21684750	479	89358
1	21732532	480	90206
1	21780800	481	91796
1	21828226	482	88828
1	21876314	483	90789
1	21924263	484	90948
1	21971759	485	89570
1	22020425	486	91902
1	22068057	487	90471
1	22115819	488	89464
1	22164033	489	91266
1	22211635	490	90153
1	22259414	491	89623
1	22307571	492	90736
1	22355668	493	91001
1	22403378	494	90524
1	22451275	495	90471
1	22498873	496	89464
1	22547165	497	92538
1	22594739	498	88828
1	22642982	499	92114
1	22691170	500	89888
1	22738647	501	89040
1	22786466	502	93015
1	22834651	503	89517
1	22882113	504	89517
1	22930323	505	91584
1	22978030	506	90100
1	23026178	507	91054
1	23074158	508	90948
1	23122054	509	90524
1	23170171	510	91160
1	23218322	511	91160
1	23265990	512	89623
1	23314179	513	91372
1	23362204	514	90895
1	23409740	515	89517
1	23457840	516	90206
1	23505798	517	91902
1	23553424	518	89623
1	23601647	519	91001
1	23648392	520	87609
1	23696782	521	91160
1	23745274	522	91584
1	23792483	523	89888
1	23840696	524	89994
1	23888651	525	91107
1	23936074	526	88669
1	23984651	527	92909
1	24032258	528	89941
1	24080437	529	90471
1	24127949	530	88775
1	24176461	531	93598
1	24224218	532	89570
1	24271829	533	90047
1	24320156	534	92273
1	24367795	535	89358
1	24415689	536	90948
1	24463476	537	89623
1	24511483	538	92114
1	24558884	539	87344
1	24606790	540	90577
1	24655108	541	91902
1	24702875	542	89888
1	24750905	543	91266
1	24798921	544	89676
1	24846825	545	91266
1	24894244	546	89517
1	24942620	547	91319
1	24990651	548	91319
1	25038636	549	91054
1	25086406	550	89093
1	25134366	551	92591
1	25182055	552	88616
1	25230368	553	91531
1	25278038	554	90789
1	25325904	555	90418
1	25373753	556	89570
1	25421915	557	91849
1	25469840	558	90736
1	25517614	559	90471
1	25565684	560	89941
1	25613856	561	91266
1	25661332	562	89729
1	25709523	563	90948
1	25757412	564	90418
1	25805541	565	92379
1	25853183	566	88616
1	25901001	567	90365
1	25949459	568	93121
1	25996965	569	87980
1	26044573	570	89305
1	26092250	571	90683
1	26140923	572	93121
1	26188556	573	88722
1	26236343	574	91107
1	26284329	575	90312
1	26332579	576	90842
1	26380236	577	90842
1	26428490	578	89782
1	26476754	579	92485
1	26524855	580	91001
1	26571972	581	87397
1	26620478	582	93174
1	26668023	583	89305
1	26715728	584	90789
1	26764233	585	91266
1	26811986	586	89517
1	26859281	587	88775
1	26908262	588	94234
1	26955668	589	88987
1	27003635	590	90895
1	27051526	591	90524
1	27099712	592	91319
1	27146957	593	89146
1	27195454	594	90789
1	27243333	595	91107
1	27290995	596	90630
1	27339299	597	90895
1	27387250	598	90630
1	27434646	599	89040
1	27483057	600	92167
1	27530851	601	90259
1	27578768	602	91902
1	27627108	603	91849
1	27674330	604	87344
1	27722402	605	91001
1	27770752	606	91001
1	27818203	607	90312
1	27866151	608	89517
1	27914233	609	92856
1	27962329	610	90100
1	28010088	611	89835
1	28058311	612	91902
1	28106579	613	92273
1	28154476	614	89782
1	28201872	615	89252
1	28249978	616	90630
1	28297769	617	90418
1	28345328	618	89835
1	28392781	619	89676
1	28440938	620	89994
1	28488971	621	91001
1	28537007	622	92432
1	28584324	623	88510
1	28632798	624	91425
1	28680489	625	88881
1	28728619	626	92485
1	28776123	627	89358
1	28824371	628	91372
1	28872419	629	90312
1	28920353	630	91531
1	28967994	631	88033
1	29016039	632	92750
1	29063722	633	88722
1	29111570	634	91054
1	29160091	635	92962
1	29207836	636	89570
1	29255493	637	88828
1	29303773	638	92326
1	29351878	639	90789
1	29400012	640	91372
1	29448132	641	91584
1	29496061	642	90736
1	29543505	643	88616
1	29591882	644	92432
1	29639751	645	90577
1	29687902	646	91107
1	29735808	647	90365
1	29783509	648	90100
1	29831467	649	90365
1	29879753	650	90895
1	29927584	651	90895
1	29975846	652	91637
1	30022997	653	88669
1	30070916	654	90736
1	30119401	655	91743
1	30166795	656	89146
1	30214755	657	90047
1	30262262	658	90312
1	30310563	659	90630
1	30358468	660	90895
1	30405957	661	90577
1	30453913	662	89676
1	30501984	663	89782
1	30550097	664	91637
1	30597453	665	88775
1	30645705	666	91955
1	30693632	667	90418
1	30741398	668	90789
1	30789918	669	91372
1	30837003	670	89358
1	30885166	671	90365
1	30932921	672	89517
1	30981235	673	91796
1	31028716	674	89570
1	31076797	675	91054
1	31124780	676	90471
1	31172204	677	89676
1	31220548	678	90524
1	31268339	679	91743
1	31316603	680	91955
1	31363530	681	86814
1	31411958	682	92591
1	31459379	683	88510
1	31507532	684	90948
1	31555170	685	89676
1	31603742	686	93227
1	31651330	687	89040
1	31699281	688	90630
1	31746863	689	90365
1	31795457	690	91425
1	31843249	691	91001
1	31890860	692	89252
1	31939183	693	92591
1	31986649	694	87715
1	32034744	695	92485
1	32082376	696	88192
1	32130112	697	90630
1	32178434	698	91478
1	32226534	699	91690
1	32274191	700	88404
1	32321900	701	91213
1	32369854	702	89358
1	32417771	703	92273
1	32465888	704	89941
1	32513665	705	91319
1	32562012	706	91001
1	32609644	707	89941
1	32657674	708	91319
1	32705161	709	88351
1	32753285	710	91425
1	32800811	711	90948
1	32849230	712	91001
1	32896978	713	89782
1	32944859	714	89888
1	32992338	715	89941
1	33040703	716	92485
1	33088732	717	89835
1	33136825	718	92326
1	33184573	719	90736
1	33232711	720	90153
1	33280326	721	89305
1	33328587	722	92432
1	33376423	723	90206
1	33424492	724	90047
1	33471959	725	90365
1	33519999	726	90948
1	33568404	727	91796
1	33616602	728	91637
1	33664407	729	89146
1	33712229	730	91213
1	33759792	731	89464
1	33808320	732	91902
1	33855875	733	89199
1	33903932	734	91902
1	33951162	735	88139
1	33999390	736	90948
1	34047211	737	91160
1	34095695	738	90683
1	34143259	739	91160
1	34191037	740	90736
1	34238778	741	89199
1	34287303	742	90895
1	34335476	743	92909
1	34382907	744	88828
1	34431110	745	91213
1	34478931	746	89994
1	34526887	747	90948
1	34574639	748	88987
1	34623044	749	92326
1	34670643	750	89782
1	34718630	751	91213
1	34766977	752	92538
1	34814278	753	89093
1	34862301	754	89888
1	34910460	755	91425
1	34958008	756	89941
1	35006124	757	91637
1	35054334	758	90842
1	35102133	759	91001
1	35150590	760	91849
1	35198346	761	89040
1	35245864	762	89411
1	35294567	763	94287
1	35341824	764	87874
1	35389707	765	91160
1	35438022	766	91319
1	35485925	767	90153
1	35533690	768	90153
1	35581822	769	91054
1	35629696	770	91001
1	35676977	771	87980
1	35725532	772	92750
1	35773079	773	90153
1	35820950	774	90365
1	35869033	775	89835
1	35916920	776	92114
1	35964699	777	87450
1	36012497	778	91637
1	36060387	779	91266
1	36108744	780	91001
1	36155885	781	87980
1	36203990	782	91955
1	36251736	783	88616
1	36299379	784	91425
1	36347465	785	91107
1	36395117	786	89517
1	36443486	787	90312
1	36491209	788	91213
1	36538824	789	90630
1	36587360	790	92061
1	36634888	791	87980
1	36682913	792	90418
1	36730418	793	90259
1	36778994	794	92750
1	36826468	795	88616
1	36874022	796	90365
1	36922407	797	90471
1	36970817	798	92326
1	37017929	799	88086
1	37066377	800	92909
1	37114292	801	89623
1	37161805	802	90312
1	37209923	803	90577
1	37257897	804	90895
1	37306073	805	91849
1	37353925	806	89676
1	37401645	807	89729
1	37449942	808	92273
1	37497234	809	88404
1	37545423	810	91531
1	37593313	811	90418
1	37641451	812	91372
1	37688788	813	88828
1	37736577	814	90100
1	37784737	815	92273
1	37833050	816	90895
1	37880404	817	88510
1	37929164	818	94287
1	37976950	819	89199
1	38025015	820	90630
1	38072380	821	89835
1	38120708	822	91213
1	38168807	823	91001
1	38216418	824	90630
1	38264769	825	90418
1	38312262	826	88775
1	38360786	827	93545
1	38407890	828	87397
1	38455982	829	91637
1	38504487	830	92432
1	38551724	831	87662
1	38600398	832	94181
1	38648210	833	88934
1	38696045	834	89729
1	38744570	835	92962
1	38792239	836	89782
1	38840280	837	90736
1	38888131	838	91743
1	38935921	839	88934
1	38983957	840	90471
1	39032048	841	91319
1	39079916	842	90736
1	39127938	843	90577
1	39175978	844	91160
1	39223596	845	88722
1	39271930	846	92485
1	39319358	847	87927
1	39368014	848	93280
1	39415822	849	89305
1	39463687	850	90365
1	39511340	851	90789
1	39559176	852	89888
1	39607485	853	91107
1	39654797	854	89305
1	39703118	855	90206
1	39751104	856	93015
1	39798892	857	89358
1	39846866	858	91319
1	39894611	859	89676
1	39942569	860	90365
1	39990551	861	91160
1	40038508	862	90206
1	40086568	863	91849
1	40134166	864	90312
1	40182249	865	90630
1	40230428	866	90948
1	40278279	867	89252
1	40326618	868	92167
1	40374519	869	91319
1	40422097	870	88351
1	40469953	871	91054
1	40518102	872	90842
1	40566031	873	90259
1	40613425	874	89941
1	40661427	875	90630
1	40709317	876	91107
1	40757370	877	90789
1	40805327	878	90683
1	40853104	879	90418
1	40901314	880	90365
1	40949025	881	90630
1	40996328	882	88298
1	41045095	883	93015
1	41092185	884	88881
1	41140175	885	90524
1	41187994	886	90312
1	41235931	887	90577
1	41284077	888	90789
1	41331702	889	88934
1	41379558	890	91266
1	41427858	891	92644
1	41475666	892	89676
1	41523854	893	91425
1	41571270	894	88086
1	41619080	895	91319
1	41666769	896	90418
1	41715365	897	91743
1	41763483	898	90895
1	41811340	899	90471
1	41859026	900	89729
1	41906670	901	89888
1	41954747	902	90577
1	42002425	903	90842
1	42050803	904	92114
1	42098392	905	88192
1	42146446	906	90577
1	42193865	907	89623
1	42241898	908	91584
1	42289606	909	90259
1	42337751	910	91425
1	42385714	911	90736
1	42433460	912	89623
1	42481764	913	93015
1	42529413	914	87344
1	42577743	915	93174
1	42625720	916	90365
1	42673269	917	88828
1	42721079	918	90206
1	42769551	919	92326
1	42817354	920	90206
1	42865139	921	90524
1	42913176	922	90736
1	42960870	923	89729
1	43009192	924	92379
1	43056462	925	86496
1	43105078	926	94446
1	43152622	927	88510
1	43200270	928	88616
1	43248705	929	93227
1	43296087	930	86761
1	43344066	931	91478
1	43392238	932	93651
1	43440258	933	89040
1	43487921	934	90630
1	43536623	935	92750
1	43584290	936	88298
1	43631775	937	91160
1	43680178	938	90683
1	43727483	939	89040
1	43775653	940	91213
1	43823735	941	91425
1	43871757	942	89199
1	43919781	943	91796
1	43967446	944	90100
1	44015185	945	90683
1	44063589	946	92061
1	44111396	947	89252
1	44159164	948	91107
1	44207081	949	90789
1	44254878	950	89623
1	44303008	951	90153
1	44350624	952	89782
1	44398811	953	91054
1	44445882	954	89093
1	44494241	955	91160
1	44541780	956	88457
1	44590095	957	93545
1	44637918	958	89464
1	44685792	959	90524
1	44733857	960	91478
1	44781596	961	89623
1	44829978	962	91902
1	44877803	963	89623
1	44925809	964	92061
1	44973471	965	89888
1	45021513	966	89941
1	45070006	967	90789
1	45117386	968	89517
1	45165148	969	90842
1	45213028	970	90471
1	45260852	971	89570
1	45309186	972	91372
1	45357057	973	90577
1	45404645	974	88669
1	45452784	975	91478
1	45500758	976	91319
1	45548608	977	89517
1	45596600	978	91054
1	45644594	979	91425
1	45692134	980	88881
1	45740297	981	91107
1	45788114	982	89782
1	45836454	983	90683
1	45884332	984	93333
1	45932146	985	90100
1	45979493	986	89040
1	46028182	987	92697
1	46075690	988	89146
1	46123956	989	93280
1	46171503	990	88881
1	46219920	991	91001
1	46267178	992	88351
1	46315480	993	91319
1	46363323	994	89623
1	46410979	995	90312
1	46459630	996	92909
1	46507010	997	88722
1	46555033	998	91584
1	46603066	999	90365
1	46650131	1000	87291
1	46698328	1001	92803
1	46746322	1002	91107
1	46794241	1003	90206
1	46841712	1004	88722
1	46890178	1005	93015
1	46937653	1006	88086
1	46985674	1007	91213
1	47033635	1008	89941
1	47081461	1009	91955
1	47129729	1010	91637
1	47177918	1011	89623
1	47225405	1012	91213
1	47273731	1013	91637
1	47321822	1014	90312
1	47369784	1015	91584
1	47417296	1016	88828
1	47465456	1017	90842
1	47513286	1018	91849
1	47561394	1019	90683
1	47609501	1020	90842
1	47657305	1021	89888
1	47704764	1022	88669
1	47753238	1023	91902
1	47800562	1024	89729
1	47848803	1025	91001
1	47896713	1026	89782
1	47945581	1027	94658
1	47992483	1028	87503
1	48040827	1029	91584
1	48088132	1030	89517
1	48135937	1031	89464
1	48184179	1032	93227
1	48232300	1033	89252
1	48280310	1034	90365
1	48327943	1035	91478
1	48375600	1036	88828
1	48423742	1037	91531
1	48471257	1038	88086
1	48519789	1039	93969
1	48567195	1040	88775
1	48614971	1041	89199
1	48662729	1042	91107
1	48710510	1043	89517
1	48758358	1044	91001
1	48806444	1045	90789
1	48854266	1046	90312
1	48902147	1047	90630
1	48950108	1048	90100
1	48998324	1049	90895
1	49045786	1050	89093
1	49094099	1051	91425
1	49141926	1052	90524
1	49189559	1053	89835
1	49237071	1054	89411
1	49284809	1055	90206
1	49332630	1056	90471
1	49380784	1057	91584
1	49428704	1058	89941
1	49476886	1059	92326
1	49524925	1060	90471
1	49573045	1061	90895
1	49620677	1062	89305
1	49668702	1063	91054
1	49716308	1064	89835
1	49764425	1065	90842
1	49811739	1066	89093
1	49860453	1067	92962
1	49907850	1068	88563
1	49955901	1069	91001
1	50004195	1070	91531
1	50051328	1071	87715
1	50099286	1072	90577
1	50146780	1073	89358
1	50194723	1074	92061
1	50242736	1075	89835
1	50290953	1076	92220
1	50338467	1077	89305
1	50386369	1078	89199
1	50434303	1079	91478
1	50482586	1080	92167
1	50530316	1081	89570
1	50578597	1082	91319
1	50626312	1083	90206
1	50674481	1084	90577
1	50722646	1085	92326
1	50770382	1086	89146
1	50818390	1087	91743
1	50866248	1088	89835
1	50914111	1089	89835
1	50962626	1090	92909
1	51010243	1091	90312
1	51058339	1092	90683
1	51106636	1093	91743
1	51154099	1094	87344
1	51201866	1095	90789
1	51250173	1096	92167
1	51297247	1097	88192
1	51345913	1098	92273
1	51393433	1099	90259
1	51441282	1100	90948
1	51489243	1101	90365
1	51537054	1102	90153
1	51585170	1103	91584
1	51633406	1104	90630
1	51680965	1105	90418
1	51728991	1106	89994
1	51777192	1107	92167
1	51824814	1108	90047
1	51872483	1109	89835
1	51920378	1110	90100
1	51968705	1111	91743
1	52016249	1112	89941
1	52064484	1113	91690
1	52112210	1114	89252
1	52160343	1115	90471
1	52208498	1116	91796
1	52256103	1117	89835
1	52304008	1118	89411
1	52352808	1119	93068
1	52399691	1120	87344
1	52448207	1121	92538
1	52495621	1122	89358
1	52543790	1123	91266
1	52591933	1124	92008
1	52640004	1125	90153
1	52688000	1126	90683
1	52735928	1127	89888
1	52784141	1128	92220
1	52831980	1129	90471
1	52879363	1130	88192
1	52927414	1131	90895
1	52975306	1132	90736
1	53022837	1133	88457
1	53071225	1134	92167
1	53118478	1135	88616
1	53166392	1136	90948
1	53214480	1137	90365
1	53262468	1138	91213
1	53310405	1139	90418
1	53358151	1140	90630
1	53406263	1141	90259
1	53453871	1142	90471
1	53502086	1143	91107
1	53549809	1144	88616
1	53597906	1145	92167
1	53645803	1146	90047
1	53694006	1147	92538
1	53741173	1148	86549
1	53789540	1149	92220
1	53836834	1150	89941
1	53884995	1151	90683
1	53933167	1152	91054
1	53980981	1153	90100
1	54028836	1154	89729
1	54076414	1155	90047
1	54124576	1156	91637
1	54172355	1157	90471
1	54220625	1158	91319
1	54268576	1159	89252
1	54316309	1160	91690
1	54364313	1161	90471
1	54412165	1162	90418
1	54459867	1163	90736
1	54508465	1164	91372
1	54556303	1165	90047
1	54603615	1166	89305
1	54651655	1167	90630
1	54699961	1168	92326
1	54747629	1169	89570
1	54795704	1170	90683
1	54843775	1171	91107
1	54891839	1172	90630
1	54939278	1173	88722
1	54987302	1174	91743
1	55035285	1175	89835
1	55083019	1176	89835
1	55130847	1177	90683
1	55179022	1178	91584
1	55226942	1179	90736
1	55274514	1180	89835
1	55323048	1181	91849
1	55370725	1182	88139
1	55418241	1183	89941
1	55466125	1184	89729
1	55514248	1185	92008
1	55562002	1186	89517
1	55610207	1187	92379
1	55657802	1188	88563
1	55706246	1189	92909
1	55753674	1190	89676
1	55801772	1191	90789
1	55849878	1192	90259
1	55897615	1193	90630
1	55945488	1194	89570
1	55993814	1195	92750
1	56040866	1196	87821
1	56089190	1197	91584
1	56137215	1198	89517
1	56185030	1199	92273
1	56232954	1200	89146
1	56280802	1201	90895
1	56328894	1202	89464
1	56376616	1203	90471
1	56424839	1204	92697
1	56472034	1205	87503
1	56520179	1206	92697
1	56568326	1207	88616
1	56616452	1208	91743
1	56664127	1209	90312
1	56712007	1210	89464
1	56759732	1211	91160
1	56807907	1212	91637
1	56856018	1213	90842
1	56903837	1214	89464
1	56951709	1215	90895
1	56999881	1216	90524
1	57047673	1217	90895
1	57095752	1218	90842
1	57143476	1219	89835
1	57191274	1220	89623
1	57239750	1221	92538
1	57287602	1222	89517
1	57335005	1223	90206
1	57383323	1224	91584
1	57431153	1225	89994
1	57478639	1226	89305
1	57526832	1227	91584
1	57575139	1228	91266
1	57622820	1229	90789
1	57671262	1230	91743
1	57718353	1231	88828
1	57766361	1232	90630
1	57814520	1233	92114
1	57862366	1234	88828
1	57909854	1235	88510
1	57958086	1236	93651
1	58006065	1237	89199
1	58054250	1238	90895
1	58101481	1239	89411
1	58149966	1240	92220
1	58197361	1241	87821
1	58245249	1242	90736
1	58293675	1243	92432
1	58341422	1244	89994
1	58389733	1245	93015
1	58437630	1246	89517
1	58485228	1247	89199
1	58533173	1248	90312
1	58581089	1249	91160
1	58629168	1250	90577
1	58676594	1251	90153
1	58725020	1252	91425
1	58772429	1253	89623
1	58821119	1254	91902
1	58868438	1255	89782
1	58917022	1256	92379
1	58964366	1257	88457
1	59012919	1258	92220
1	59060681	1259	88881
1	59108505	1260	91425
1	59156547	1261	90948
1	59204473	1262	90524
1	59252097	1263	89411
1	59300333	1264	92114
1	59348101	1265	89729
1	59396313	1266	90683
1	59443722	1267	91107
1	59492090	1268	91531
1	59539695	1269	89305
1	59588230	1270	91637
1	59635918	1271	90524
1	59684218	1272	92061
1	59732053	1273	89676
1	59779892	1274	90206
1	59828078	1275	90842
1	59875979	1276	90259
1	59923758	1277	89570
1	59971715	1278	92644
1	60019478	1279	88669
1	60067806	1280	93015
1	60115506	1281	88828
1	60163893	1282	92220
1	60211896	1283	91054
1	60259619	1284	89676
1	60307149	1285	89517
1	60354516	1286	88722
1	60402923	1287	92644
1	60451028	1288	89676
1	60498878	1289	91690
1	60547054	1290	90471
1	60594458	1291	89305
1	60642973	1292	92909
1	60690630	1293	89411
1	60738496	1294	89941
1	60786394	1295	90471
1	60834402	1296	91584
1	60882320	1297	89782
1	60930003	1298	89517
1	60977941	1299	90577
1	61025873	1300	91001
1	61074471	1301	92591
1	61122313	1302	90100
1	61170016	1303	89570
1	61218516	1304	92379
1	61265824	1305	89676
1	61314240	1306	92167
1	61361761	1307	87450
1	61409638	1308	92273
1	61457294	1309	89835
1	61505414	1310	89888
1	61553431	1311	91425
1	61601674	1312	91107
1	61649285	1313	89040
1	61697633	1314	91902
1	61745417	1315	90418
1	61793273	1316	89782
1	61841591	1317	92485
1	61889110	1318	89623
1	61937080	1319	90630
1	61985518	1320	92538
1	62033341	1321	90312
1	62081297	1322	88775
1	62128835	1323	90789
1	62177125	1324	92326
1	62224435	1325	88404
1	62272913	1326	91849
1	62320452	1327	90365
1	62368802	1328	91160
1	62416239	1329	88457
1	62464508	1330	92379
1	62512614	1331	91372
1	62560638	1332	90789
1	62608034	1333	89199
1	62656385	1334	90948
1	62704482	1335	90895
1	62752406	1336	89941
1	62799585	1337	88616