version 2
run QLearnCC-2-20100707-11:29:39-5128
attr alpha 0.1
attr configname QLearnCC
attr datetime 20100707-11:29:39
attr epsilon 0.01
attr experiment QLearnCC
attr inifile D:/Developement/Oversim2/multic/simulations/omnetpp.ini
attr iterationvars "$alpha=0.1, $lamda=1.0, $reinfup=0.5, $epsilon=0.01"
attr iterationvars2 "$alpha=0.1, $lamda=1.0, $reinfup=0.5, $epsilon=0.01, $repetition=0"
attr lamda 1.0
attr measurement "$alpha=0.1, $lamda=1.0, $reinfup=0.5, $epsilon=0.01"
attr network oversim.underlay.simpleunderlay.SimpleUnderlayNetwork
attr processid 5128
attr reinfup 0.5
attr repetition 0
attr replication #0
attr resultdir results
attr runnumber 2
attr seedset 2

vector 1  SimpleUnderlayNetwork.globalObserver.globalStatistics  incoming_bytes  ETV
vector 2  SimpleUnderlayNetwork.globalObserver.globalStatistics  drops  ETV
vector 3  SimpleUnderlayNetwork.globalObserver.globalStatistics  9rateOf1To0  ETV
vector 4  SimpleUnderlayNetwork.globalObserver.globalStatistics  max9RateOf1To0  ETV
vector 5  SimpleUnderlayNetwork.globalObserver.globalStatistics  9rateOf1To1  ETV
vector 6  SimpleUnderlayNetwork.globalObserver.globalStatistics  max9RateOf1To1  ETV
vector 7  SimpleUnderlayNetwork.globalObserver.globalStatistics  9rateOf1To2  ETV
vector 8  SimpleUnderlayNetwork.globalObserver.globalStatistics  max9RateOf1To2  ETV
vector 9  SimpleUnderlayNetwork.globalObserver.globalStatistics  9rateOf1To3  ETV
vector 10  SimpleUnderlayNetwork.globalObserver.globalStatistics  max9RateOf1To3  ETV
vector 11  SimpleUnderlayNetwork.globalObserver.globalStatistics  9rateOf1To4  ETV
vector 12  SimpleUnderlayNetwork.globalObserver.globalStatistics  max9RateOf1To4  ETV
vector 13  SimpleUnderlayNetwork.globalObserver.globalStatistics  9rateOf1To5  ETV
vector 14  SimpleUnderlayNetwork.globalObserver.globalStatistics  max9RateOf1To5  ETV
vector 15  SimpleUnderlayNetwork.globalObserver.globalStatistics  9rateOf1To6  ETV
vector 16  SimpleUnderlayNetwork.globalObserver.globalStatistics  max9RateOf1To6  ETV
vector 17  SimpleUnderlayNetwork.globalObserver.globalStatistics  9rateOf1To7  ETV
vector 18  SimpleUnderlayNetwork.globalObserver.globalStatistics  max9RateOf1To7  ETV
vector 19  SimpleUnderlayNetwork.globalObserver.globalStatistics  9rateOf1To8  ETV
vector 20  SimpleUnderlayNetwork.globalObserver.globalStatistics  max9RateOf1To8  ETV
vector 21  SimpleUnderlayNetwork.globalObserver.globalStatistics  9rateOf1To9  ETV
vector 22  SimpleUnderlayNetwork.globalObserver.globalStatistics  max9RateOf1To9  ETV
vector 23  SimpleUnderlayNetwork.globalObserver.globalStatistics  1rate  ETV
vector 24  SimpleUnderlayNetwork.globalObserver.globalStatistics  max2Rate  ETV
vector 25  SimpleUnderlayNetwork.globalObserver.globalStatistics  "GlobalNodeList: Number of nodes"  ETV
vector 26  SimpleUnderlayNetwork.globalObserver.globalStatistics  "GlobalNodeList: Number of bootstrapped malicious nodes"  ETV
1	4504902	118	88987
1	4552982	119	92856
1	4600727	120	89570
1	4648994	121	91584
1	4696397	122	88298
1	4744573	123	91584
1	4792863	124	91743
1	4840607	125	90206
1	4888957	126	91478
1	4936946	127	91001
1	4984620	128	89994
1	5032830	129	90736
1	5080745	130	91054
1	5128792	131	91955
1	5176706	132	90153
1	5224369	133	90100
1	5272294	134	89888
1	5320990	135	92538
1	5368233	136	88881
1	5416758	137	92273
1	5464476	138	89994
1	5512638	139	90577
1	5560482	140	91001
1	5608408	141	91054
1	5656799	142	91107
1	5704621	143	91160
1	5752752	144	90683
1	5800850	145	91319
1	5848994	146	91372
1	5896424	147	89941
1	5944814	148	92008
1	5992531	149	90100
1	6040696	150	90789
1	6088616	151	91001
1	6136967	152	91107
1	6185370	153	92485
1	6232857	154	89570
1	6281152	155	91849
1	6329083	156	89994
1	6376841	157	90789
1	6425567	158	93121
1	6472926	159	88298
1	6521126	160	91690
1	6569376	161	91849
1	6617076	162	89305
1	6665421	163	92750
1	6713131	164	89252
1	6761129	165	90206
1	6809522	166	92379
1	6857272	167	90418
1	6905875	168	92273
1	6953520	169	89358
1	7001846	170	91743
1	7049356	171	90100
1	7097680	172	91001
1	7145706	173	91372
1	7193074	174	88192
1	7241630	175	92644
1	7289498	176	91107
1	7337566	177	90789
1	7385835	178	91213
1	7433650	179	89888
1	7482007	180	92326
1	7530282	181	91690
1	7577682	182	88351
1	7625882	183	91637
1	7674067	184	91107
1	7722020	185	90842
1	7770061	186	91743
1	7817983	187	90259
1	7866188	188	91796
1	7913659	189	88722
1	7961568	190	90948
1	8010016	191	91372
1	8057913	192	90842
1	8105667	193	90524
1	8153990	194	91637
1	8201820	195	89517
1	8249574	196	90683
1	8297289	197	89888
1	8345587	198	92485
1	8393560	199	90471
1	8440584	200	87079
1	8489211	201	93227
1	8537309	202	91266
1	8584946	203	89252
1	8633431	204	92432
1	8681161	205	90047
1	8729454	206	91531
1	8777535	207	90842
1	8825672	208	92061
1	8873827	209	90206
1	8921578	210	89941
1	8969986	211	92485
1	9017839	212	90312
1	9066377	213	91743
1	9114240	214	91637
1	9162182	215	90683
1	9210420	216	90418
1	9258252	217	91054
1	9306459	218	91531
1	9354660	219	91107
1	9402874	220	92167
1	9450128	221	88139
1	9498715	222	92379
1	9546517	223	90577
1	9594388	224	90630
1	9642370	225	90365
1	9690306	226	90948
1	9738138	227	90524
1	9786565	228	92114
1	9834284	229	90259
1	9881778	230	88987
1	9930254	231	92538
1	9978066	232	90153
1	10025908	233	89782
1	10073999	234	91637
1	10121885	235	89888
1	10169866	236	91743
1	10217656	237	89570
1	10265579	238	90471
1	10313994	239	92167
1	10361526	240	89411
1	10409430	241	90471
1	10457177	242	90471
1	10505571	243	91054
1	10553400	244	90471
1	10601592	245	91796
1	10649740	246	90577
1	10697904	247	91531
1	10745421	248	88987
1	10793836	249	90895
1	10841886	250	93439
1	10889828	251	90206
1	10937806	252	90524
1	10985914	253	90577
1	11034289	254	92697
1	11082128	255	89835
1	11130721	256	92432
1	11178722	257	91054
1	11226659	258	90736
1	11274706	259	88881
1	11322325	260	91372
1	11371167	261	92538
1	11418601	262	89517
1	11466675	263	90577
1	11514892	264	91743
1	11562854	265	90630
1	11610844	266	90312
1	11658745	267	91637
1	11707331	268	91955
1	11754838	269	89729
1	11803177	270	91001
1	11851279	271	91372
1	11899210	272	90895
1	11947104	273	91796
1	11995106	274	89994
1	12043323	275	91372
1	12091295	276	90683
1	12139067	277	89517
1	12186879	278	91531
1	12234889	279	91266
1	12283093	280	90206
1	12331027	281	91425
1	12378446	282	87927
1	12427137	283	95029
1	12474936	284	89676
1	12523249	285	91637
1	12571107	286	89729
1	12618946	287	90842
1	12666720	288	89676
1	12714728	289	90895
1	12763378	290	93227
1	12811191	291	89782
1	12859369	292	91743
1	12907750	293	91743
1	12955748	294	90153
1	13003618	295	91478
1	13051515	296	90259
1	13100144	297	92432
1	13147495	298	89040
1	13195883	299	91213
1	13244015	300	90842
1	13291823	301	90630
1	13339789	302	90418
1	13387558	303	90206
1	13435409	304	90736
1	13483408	305	90948
1	13530989	306	90153
1	13579244	307	90630
1	13627440	308	91690
1	13675425	309	90948
1	13723599	310	92326
1	13771481	311	90153
1	13819983	312	91955
1	13867962	313	89994
1	13915911	314	91531
1	13963885	315	91054
1	14011924	316	90630
1	14059727	317	90630
1	14108432	318	92644
1	14156329	319	90047
1	14204272	320	91266
1	14251941	321	89570
1	14300426	322	91690
1	14348198	323	91001
1	14395776	324	89888
1	14444101	325	91584
1	14491916	326	91213
1	14540224	327	91266
1	14587908	328	89888
1	14636286	329	91372
1	14683588	330	89358
1	14732300	331	91849
1	14780093	332	90789
1	14827760	333	89782
1	14875998	334	90418
1	14924413	335	93015
1	14972110	336	89305
1	15020321	337	91743
1	15067906	338	88934
1	15116419	339	92326
1	15164266	340	90736
1	15212414	341	91743
1	15260138	342	89093
1	15308693	343	93068
1	15356003	344	89252
1	15404413	345	91690
1	15452221	346	90047
1	15500065	347	91478
1	15548252	348	90418
1	15596093	349	90312
1	15644118	350	91054
1	15692062	351	90259
1	15740210	352	91478
1	15787858	353	90365
1	15836228	354	90842
1	15883882	355	90047
1	15932016	356	91266
1	15980236	357	92114
1	16028190	358	90524
1	16076385	359	90683
1	16124398	360	91584
1	16172422	361	89464
1	16220426	362	91743
1	16268535	363	90842
1	16316297	364	89994
1	16364770	365	92326
1	16412633	366	90259
1	16460490	367	90948
1	16508676	368	90948
1	16556488	369	90418
1	16604651	370	91213
1	16652818	371	91637
1	16700976	372	91160
1	16748818	373	90471
1	16796862	374	91001
1	16844999	375	91107
1	16892733	376	90206
1	16941081	377	91531
1	16989182	378	91266
1	17037233	379	90630
1	17085304	380	91319
1	17133740	381	91955
1	17181044	382	89040
1	17229397	383	91584
1	17277410	384	90948
1	17324918	385	88510
1	17373647	386	93386
1	17420870	387	89040
1	17469397	388	91796
1	17517337	389	91266
1	17565127	390	90047
1	17613239	391	91902
1	17661429	392	91001
1	17708920	393	87768
1	17757168	394	93280
1	17805753	395	91531
1	17853248	396	89570
1	17901021	397	89782
1	17948961	398	90842
1	17997516	399	92220
1	18045497	400	91425
1	18093599	401	90100
1	18141268	402	89676
1	18189378	403	91372
1	18237058	404	89305
1	18285508	405	92750
1	18332944	406	88510
1	18380795	407	91054
1	18428552	408	89835
1	18476738	409	92326
1	18524692	410	89888
1	18573270	411	92697
1	18620461	412	88722
1	18668896	413	91478
1	18717086	414	92220
1	18764272	415	88881
1	18812178	416	90365
1	18861127	417	92538
1	18908533	418	89729
1	18956853	419	91054
1	19004972	420	91637
1	19053204	421	91372
1	19100903	422	89040
1	19148653	423	91107
1	19197058	424	91372
1	19245414	425	92061
1	19293682	426	92273
1	19341209	427	89570
1	19389088	428	89994
1	19437384	429	91796
1	19485461	430	90895
1	19532951	431	89941
1	19581377	432	91319
1	19629119	433	90259
1	19677004	434	90948
1	19725240	435	89676
1	19773100	436	91372
1	19821534	437	92008
1	19869084	438	90577
1	19917423	439	90365
1	19965525	440	92326
1	20013435	441	89411
1	20061444	442	91372
1	20109529	443	90842
1	20157450	444	90683
1	20205704	445	91584
1	20253712	446	90683
1	20302021	447	91796
1	20350032	448	91266
1	20398467	449	92379
1	20445967	450	89570
1	20493850	451	89941
1	20541694	452	89729
1	20589305	453	90206
1	20637459	454	91372
1	20685088	455	89941
1	20733138	456	91213
1	20781378	457	90418
1	20829293	458	91372
1	20877531	459	91743
1	20925445	460	91107
1	20973505	461	90206
1	21021544	462	90683
1	21069335	463	90100
1	21117677	464	91955
1	21165764	465	91213
1	21213608	466	90153
1	21261792	467	90047
1	21309532	468	91107
1	21357395	469	90312
1	21405478	470	90789
1	21453253	471	90789
1	21501400	472	91425
1	21548693	473	88351
1	21597301	474	92061
1	21644789	475	89941
1	21693043	476	91372
1	21741250	477	91637
1	21789230	478	90683
1	21837264	479	91107
1	21885366	480	90789
1	21933217	481	90418
1	21981536	482	91584
1	22029435	483	90577
1	22077766	484	91372
1	22125419	485	90047
1	22173512	486	91107
1	22221288	487	89941
1	22269698	488	92061
1	22317580	489	90471
1	22365425	490	89305
1	22413070	491	90683
1	22461571	492	92167
1	22509164	493	88934
1	22557238	494	92167
1	22605279	495	90948
1	22653337	496	89835
1	22701536	497	92591
1	22749559	498	90524
1	22797271	499	89782
1	22845329	500	91902
1	22893323	501	89358
1	22941739	502	92485
1	22989706	503	91743
1	23037989	504	90524
1	23085470	505	89888
1	23133702	506	91531
1	23181954	507	90789
1	23229919	508	91054
1	23277259	509	88510
1	23325498	510	91266
1	23373368	511	90259
1	23421120	512	90206
1	23469500	513	91796
1	23517981	514	93121
1	23565614	515	89517
1	23613421	516	89146
1	23661306	517	92008
1	23709517	518	90259
1	23757891	519	91690
1	23805437	520	89146
1	23852926	521	90471
1	23901300	522	91902
1	23949069	523	90100
1	23997428	524	92008
1	24045390	525	89040
1	24093633	526	91902
1	24141216	527	90630
1	24189618	528	91054
1	24236913	529	88934
1	24285408	530	92273
1	24333273	531	90100
1	24381618	532	91955
1	24429485	533	90153
1	24477307	534	90365
1	24525507	535	91213
1	24573801	536	92114
1	24622051	537	90842
1	24669588	538	89835
1	24718000	539	91001
1	24765963	540	90577
1	24814225	541	92008
1	24861893	542	89252
1	24909656	543	90471
1	24957400	544	90365
1	25005697	545	91849
1	25053739	546	90736
1	25101829	547	90948
1	25149235	548	90153
1	25197087	549	90153
1	25245502	550	91955
1	25292801	551	88192
1	25341297	552	92909
1	25388883	553	89305
1	25437175	554	91690
1	25485030	555	89411
1	25532959	556	91160
1	25581419	557	93439
1	25628960	558	87874
1	25677553	559	92697
1	25725142	560	89411
1	25773715	561	92538
1	25821226	562	89994
1	25869519	563	91796
1	25917560	564	91001
1	25965506	565	89994
1	26013610	566	90736
1	26061539	567	90842
1	26109457	568	91001
1	26157400	569	90630
1	26205554	570	90524
1	26253503	571	91160
1	26301607	572	90736
1	26349594	573	90948
1	26397966	574	93174
1	26446098	575	90047
1	26493598	576	89305
1	26541705	577	91902
1	26589480	578	90418
1	26637788	579	91319
1	26685844	580	91319
1	26733479	581	89358
1	26781657	582	91372
1	26830028	583	91054
1	26877804	584	91054
1	26925986	585	90842
1	26974222	586	92326
1	27022274	587	91213
1	27070102	588	89093
1	27118498	589	93121
1	27166350	590	89570
1	27214343	591	91531
1	27262339	592	90365
1	27310741	593	91743
1	27358462	594	90259
1	27406568	595	90789
1	27454438	596	90206
1	27502933	597	93333
1	27550999	598	90312
1	27599118	599	90895
1	27647154	600	90948
1	27694918	601	90577
1	27743014	602	90471
1	27791132	603	91478
1	27839327	604	91372
1	27886793	605	88934
1	27935296	606	93227
1	27983563	607	90259
1	28030515	608	88722
1	28079027	609	92326
1	28126643	610	90789
1	28175251	611	91372
1	28222736	612	89888
1	28270815	613	90365
1	28318353	614	89835
1	28366460	615	91054
1	28414306	616	90895
1	28462479	617	90524
1	28509815	618	89676
1	28558167	619	91266
1	28606061	620	91054
1	28653936	621	90312
1	28702299	622	91478
1	28750117	623	89835
1	28798202	624	91584
1	28846122	625	90683
1	28894048	626	90206
1	28941340	627	89411
1	28989630	628	91319
1	29037773	629	90471
1	29085624	630	91001
1	29133233	631	90047
1	29181337	632	91054
1	29229211	633	89994
1	29277013	634	90047
1	29325175	635	90789
1	29373405	636	92485
1	29421385	637	90365
1	29469388	638	90736
1	29517044	639	90153
1	29565419	640	92591
1	29613529	641	90577
1	29661734	642	91160
1	29709455	643	90047
1	29757678	644	90365
1	29805488	645	91584
1	29852914	646	89517
1	29901281	647	91001
1	29949883	648	92644
1	29997143	649	88086
1	30045503	650	92432
1	30093196	651	89570
1	30141167	652	90259
1	30189279	653	90842
1	30236966	654	90418
1	30285607	655	93757
1	30333356	656	88987
1	30381499	657	91796
1	30429185	658	89464
1	30477269	659	90895
1	30525295	660	91690
1	30573338	661	90312
1	30621576	662	92485
1	30669669	663	91054
1	30717242	664	89252
1	30765733	665	92538
1	30813576	666	90259
1	30861686	667	90630
1	30909794	668	91160
1	30957524	669	89146
1	31005551	670	91425
1	31053299	671	89941
1	31101774	672	92326
1	31149458	673	90948
1	31197020	674	89411
1	31245215	675	91160
1	31292902	676	88881
1	31341093	677	91478
1	31388952	678	89093
1	31436904	679	92114
1	31484716	680	90100
1	31533418	681	93015
1	31581223	682	90683
1	31629295	683	90047
1	31677276	684	91054
1	31725452	685	91849
1	31772536	686	88192
1	31820949	687	91955
1	31868680	688	89146
1	31916966	689	92114
1	31964571	690	89305
1	32013111	691	92114
1	32060665	692	90312
1	32108749	693	90789
1	32156741	694	90047
1	32205223	695	91849
1	32252814	696	90365
1	32300969	697	90418
1	32349109	698	91319
1	32396754	699	90153
1	32445105	700	91796
1	32492575	701	88775
1	32540330	702	90418
1	32588943	703	92856
1	32636581	704	90259
1	32684533	705	88987
1	32732761	706	92803
1	32780494	707	90312
1	32828441	708	89464
1	32876341	709	90789
1	32924591	710	92538
1	32972550	711	89941
1	33020286	712	89676
1	33068239	713	91266
1	33116499	714	91955
1	33164866	715	92167
1	33212655	716	90100
1	33260636	717	90206
1	33308253	718	90259
1	33356797	719	92644
1	33404622	720	90206
1	33452623	721	90153
1	33500933	722	91425
1	33548698	723	90471
1	33596975	724	91319
1	33644905	725	91584
1	33692725	726	88563
1	33740825	727	93121
1	33788901	728	90895
1	33836777	729	90047
1	33885281	730	91955
1	33932787	731	89464
1	33981154	732	92220
1	34028949	733	89994
1	34076716	734	90312
1	34125142	735	92326
1	34172944	736	89676
1	34221075	737	92114
1	34269368	738	90365
1	34317393	739	91001
1	34365173	740	91107
1	34413715	741	91902
1	34461653	742	90524
1	34509305	743	90047
1	34557494	744	91531
1	34605340	745	91478
1	34653974	746	91955
1	34701368	747	88987
1	34749371	748	90471
1	34797696	749	91478
1	34845092	750	89146
1	34893471	751	91478
1	34941565	752	91213
1	34989455	753	91266
1	35037364	754	90047
1	35085285	755	90471
1	35133779	756	92962
1	35181815	757	90736
1	35229951	758	91054
1	35277724	759	90524
1	35325614	760	90736
1	35373829	761	91425
1	35421585	762	89358
1	35469873	763	91955
1	35517702	764	89729
1	35565788	765	91372
1	35613817	766	91425
1	35661627	767	90259
1	35709693	768	91478
1	35757697	769	90206
1	35805586	770	90789
1	35853487	771	90153
1	35901012	772	89623
1	35949514	773	91849
1	35997145	774	90312
1	36045201	775	91054
1	36092850	776	89729
1	36141324	777	92697
1	36189463	778	89517
1	36237518	779	92273
1	36285396	780	90842
1	36333869	781	92432
1	36381673	782	90153
1	36429757	783	91372
1	36477217	784	87980
1	36525343	785	92432
1	36573305	786	90206
1	36621428	787	90895
1	36669147	788	90736
1	36717260	789	90100
1	36765110	790	91478
1	36813343	791	90683
1	36861004	792	90100
1	36909064	793	90418
1	36957487	794	93916
1	37005788	795	90471
1	37053236	796	89252
1	37101205	797	91478
1	37149143	798	89676
1	37197577	799	92644
1	37245490	800	89623
1	37293773	801	92326
1	37341417	802	88775
1	37389633	803	91690
1	37437689	804	90842
1	37485911	805	92061
1	37533901	806	89994
1	37582056	807	91478
1	37629817	808	89835
1	37677743	809	90895
1	37726041	810	91584
1	37774048	811	91319
1	37822013	812	89941
1	37869972	813	91478
1	37918110	814	91107
1	37965574	815	89093
1	38013936	816	91584
1	38061449	817	90630
1	38109287	818	89411
1	38157561	819	91796
1	38205812	820	92379
1	38253342	821	89782
1	38301985	822	92379
1	38349586	823	88828
1	38397975	824	92273
1	38445693	825	90418
1	38493821	826	91160
1	38542077	827	91743
1	38589767	828	89252
1	38638219	829	92591
1	38685708	830	88934
1	38733719	831	91796
1	38781932	832	90100
1	38829955	833	91319
1	38877626	834	90153
1	38925770	835	91425
1	38973535	836	90153
1	39021546	837	90736
1	39070095	838	91902
1	39117674	839	89093
1	39166141	840	92326
1	39214360	841	92485
1	39261981	842	89464
1	39310263	843	91319
1	39358145	844	90789
1	39406530	845	91266
1	39454445	846	91531
1	39502235	847	89994
1	39550624	848	91743
1	39598461	849	90365
1	39646831	850	91796
1	39694830	851	90630
1	39742739	852	90153
1	39790950	853	92008
1	39838624	854	90153
1	39887018	855	92644
1	39935119	856	90683
1	39982843	857	90365
1	40030541	858	89305
1	40078816	859	91796
1	40126424	860	90524
1	40174469	861	90577
1	40222598	862	90577
1	40270670	863	91955
1	40318748	864	90153
1	40366698	865	91319
1	40414580	866	91796
1	40462914	867	90153
1	40510833	868	90524
1	40559084	869	92856
1	40606902	870	89305
1	40655205	871	92379
1	40703328	872	90312
1	40751567	873	91690
1	40799284	874	89305
1	40847827	875	93598
1	40896398	876	92061
1	40943293	877	87238
1	40991963	878	92644
1	41039754	879	90100
1	41087970	880	91001
1	41135063	881	88881
1	41183126	882	90471
1	41231402	883	91213
1	41279399	884	91213
1	41326647	885	87768
1	41375030	886	92114
1	41422679	887	90047
1	41470790	888	91213
1	41519013	889	91213
1	41566582	890	90948
1	41614885	891	91266
1	41663012	892	90895
1	41710557	893	90047
1	41759252	894	93068
1	41806988	895	89305
1	41855155	896	90948
1	41902930	897	91107
1	41951034	898	92008
1	41999048	899	88563
1	42047195	900	92750
1	42094781	901	89199
1	42142987	902	91266
1	42191184	903	91531
1	42239326	904	91584
1	42287029	905	89835
1	42335408	906	91054
1	42383680	907	91690
1	42431063	908	88298
1	42479296	909	92697
1	42527678	910	92114
1	42575294	911	89199
1	42623519	912	91955
1	42671613	913	90418
1	42720198	914	92909
1	42768082	915	89411
1	42816389	916	92856
1	42864352	917	89623
1	42912349	918	91690
1	42960273	919	90471
1	43008298	920	91531
1	43056314	921	89676
1	43103883	922	90789
1	43152364	923	91160
1	43200045	924	90047
1	43248175	925	90789
1	43295537	926	90153
1	43343733	927	90895
1	43391638	928	91425
1	43439750	929	89835
1	43487901	930	91478
1	43536290	931	91902
1	43583920	932	89358
1	43631805	933	91425
1	43679862	934	90895
1	43728195	935	91001
1	43775715	936	90206
1	43823789	937	90365
1	43871632	938	89782
1	43919660	939	92114
1	43967830	940	90577
1	44015958	941	91531
1	44063791	942	90789
1	44112224	943	91796
1	44160169	944	89941
1	44208099	945	90895
1	44256113	946	90683
1	44304151	947	90206
1	44352242	948	92644
1	44400277	949	90630
1	44448214	950	89994
1	44496023	951	89941
1	44543986	952	90683
1	44591957	953	90312
1	44639981	954	90948
1	44687903	955	90365
1	44736602	956	92591
1	44784705	957	91001
1	44832636	958	90630
1	44880954	959	91955
1	44928165	960	88775
1	44976558	961	92538
1	45025059	962	91213
1	45072515	963	89411
1	45120400	964	90418
1	45168331	965	90895
1	45216475	966	91584
1	45264498	967	90577
1	45312683	968	92061
1	45360581	969	89464
1	45408959	970	91319
1	45456097	971	89093
1	45504821	972	92485
1	45552393	973	89305
1	45600229	974	90418
1	45648788	975	91584
1	45696052	976	89411
1	45744639	977	92220
1	45791647	978	88351
1	45840085	979	92326
1	45888241	980	91266
1	45936510	981	92326
1	45984272	982	90259
1	46031804	983	89252
1	46079799	984	90842
1	46127929	985	91796
1	46175860	986	89676
1	46223920	987	91425
1	46272348	988	91637
1	46320533	989	91266
1	46368239	990	90153
1	46416380	991	91584
1	46464468	992	90365
1	46512443	993	91266
1	46560650	994	91319
1	46608957	995	92644
1	46656680	996	89146
1	46704635	997	91266
1	46752136	998	89040
1	46800591	999	92114
1	46848484	1000	90789
1	46896314	1001	90524
1	46944601	1002	90630
1	46992474	1003	91054
1	47040437	1004	89941
1	47088288	1005	91213
1	47136656	1006	91266
1	47184785	1007	91478
1	47232225	1008	88563
1	47280660	1009	94234
1	47328602	1010	89888
1	47376671	1011	88934
1	47424516	1012	91690
1	47472640	1013	90683
1	47521000	1014	91690
1	47568623	1015	90789
1	47616663	1016	90365
1	47664877	1017	91372
1	47712373	1018	89199
1	47760823	1019	92750
1	47809027	1020	90471
1	47856835	1021	90683
1	47904423	1022	90153
1	47952661	1023	91054
1	48000997	1024	90842
1	48048472	1025	90736
1	48096970	1026	91160
1	48144572	1027	89464
1	48192977	1028	91690
1	48240122	1029	89517
1	48288540	1030	92379
1	48336394	1031	90365
1	48384667	1032	90524
1	48432326	1033	89464
1	48481004	1034	94075
1	48528988	1035	90365
1	48577238	1036	91796
1	48624487	1037	88351
1	48672924	1038	92485
1	48720412	1039	88828
1	48768767	1040	92114
1	48817385	1041	93386
1	48865211	1042	90100
1	48913362	1043	90259
1	48961105	1044	90471
1	49009290	1045	91637
1	49056762	1046	89040
1	49105455	1047	93810
1	49153175	1048	88563
1	49201318	1049	91001
1	49249572	1050	91531
1	49297510	1051	90418
1	49344612	1052	89570
1	49393535	1053	92856
1	49441041	1054	90259
1	49488790	1055	88563
1	49536872	1056	92326
1	49585645	1057	92114
1	49633007	1058	89252
1	49681246	1059	91531
1	49729473	1060	91637
1	49777588	1061	92061
1	49824964	1062	87874
1	49873272	1063	91955
1	49920939	1064	89782
1	49969174	1065	90895
1	50017131	1066	90789
1	50065796	1067	92644
1	50113154	1068	89729
1	50161489	1069	90948
1	50209393	1070	92008
1	50257541	1071	90683
1	50305117	1072	89994
1	50353395	1073	90471
1	50401118	1074	90948
1	50449536	1075	91266
1	50497098	1076	90100
1	50545823	1077	91955
1	50593627	1078	90206
1	50641781	1079	91478
1	50689525	1080	90736
1	50737537	1081	90630
1	50785864	1082	91902
1	50833631	1083	89358
1	50881539	1084	91425
1	50929327	1085	89888
1	50977713	1086	91955
1	51025520	1087	90047
1	51073013	1088	89729
1	51121032	1089	89941
1	51169807	1090	93227
1	51217614	1091	90736
1	51265596	1092	89835
1	51313316	1093	90789
1	51361465	1094	91266
1	51409370	1095	89994
1	51457555	1096	91902
1	51505269	1097	89941
1	51553128	1098	90206
1	51601208	1099	91054
1	51649406	1100	91743
1	51697709	1101	91160
1	51745138	1102	89358
1	51794086	1103	93757
1	51841832	1104	89835
1	51889737	1105	91213
1	51937414	1106	89146
1	51985884	1107	92485
1	52033709	1108	91531
1	52081928	1109	89835
1	52129872	1110	91478
1	52177553	1111	88828
1	52225960	1112	92644
1	52274059	1113	91319
1	52321946	1114	90736
1	52370225	1115	90206
1	52417872	1116	91107
1	52466135	1117	91478
1	52514058	1118	90895
1	52562386	1119	91584
1	52610300	1120	89941
1	52658928	1121	92432
1	52706435	1122	90100
1	52754483	1123	91213
1	52802652	1124	91266
1	52850830	1125	91213
1	52898909	1126	91955
1	52947200	1127	90418
1	52995073	1128	91001
1	53042903	1129	89888
1	53091387	1130	92273
1	53139343	1131	90206
1	53186948	1132	90683
1	53235158	1133	91107
1	53283218	1134	90630
1	53331163	1135	91955
1	53379109	1136	89941
1	53427685	1137	93015
1	53474937	1138	89252
1	53523277	1139	91425
1	53571505	1140	90683
1	53619210	1141	91213
1	53667181	1142	90630
1	53715074	1143	89782
1	53762924	1144	91372
1	53811111	1145	90577
1	53858807	1146	90206
1	53906465	1147	90047
1	53954521	1148	90524
1	54002464	1149	91319
1	54050523	1150	91160
1	54098495	1151	90895
1	54146708	1152	91213
1	54194581	1153	91001
1	54242833	1154	91372
1	54290839	1155	90418
1	54338483	1156	89676
1	54386661	1157	92008
1	54434614	1158	90630
1	54482902	1159	90365
1	54530478	1160	90577
1	54578649	1161	90736
1	54626475	1162	90471
1	54674364	1163	90259
1	54722515	1164	91637
1	54770113	1165	89835
1	54817901	1166	89782
1	54866152	1167	91690
1	54913826	1168	89835
1	54961773	1169	90736
1	55010019	1170	91319
1	55058164	1171	91107
1	55105797	1172	91531
1	55154501	1173	91372
1	55202255	1174	90524
1	55250169	1175	90047
1	55298363	1176	91266
1	55346201	1177	91531
1	55393828	1178	88987
1	55442288	1179	91849
1	55490279	1180	89729
1	55538312	1181	92538
1	55586439	1182	90312
1	55634021	1183	89941
1	55682438	1184	91266
1	55730377	1185	90471
1	55778050	1186	90312
1	55826182	1187	91319
1	55873850	1188	89729
1	55922217	1189	91372
1	55969888	1190	90736
1	56017316	1191	89252
1	56066428	1192	93439
1	56113634	1193	87715
1	56162038	1194	93068
1	56209494	1195	88616
1	56257819	1196	92326
1	56305592	1197	89729
1	56353854	1198	92379
1	56401767	1199	88722
1	56449550	1200	91637
1	56497590	1201	90683
1	56545772	1202	91531
1	56593683	1203	90842
1	56641528	1204	89358
1	56689603	1205	91902
1	56737673	1206	91478
1	56785988	1207	91584
1	56833654	1208	89994
1	56882180	1209	92008
1	56930404	1210	91054
1	56977913	1211	89199
1	57026240	1212	91425
1	57073367	1213	89782
1	57121469	1214	90312
1	57169926	1215	91743
1	57217941	1216	91637
1	57265697	1217	89623
1	57313880	1218	91584
1	57362580	1219	91690
1	57410284	1220	91160
1	57457862	1221	89146
1	57506374	1222	92644
1	57554082	1223	88987
1	57602177	1224	91425
1	57650049	1225	90789
1	57698381	1226	90577
1	57746459	1227	91478
1	57794261	1228	90471
1	57842247	1229	91213
1	57890331	1230	91107
1	57938025	1231	90471
1	57986456	1232	91319
1	58034462	1233	91372
1	58082721	1234	91796
1	58130154	1235	88775
1	58178350	1236	90948
1	58226147	1237	90471
1	58274443	1238	91319
1	58322155	1239	90895
1	58370386	1240	90153
1	58418108	1241	91584
1	58466617	1242	92114
1	58514916	1243	91372
1	58562671	1244	89835
1	58610863	1245	90842
1	58658719	1246	90418
1	58706463	1247	91107
1	58754847	1248	91266
1	58802772	1249	90524
1	58850401	1250	90524
1	58898668	1251	91955
1	58947278	1252	92114
1	58994737	1253	88881
1	59043207	1254	92697
1	59091112	1255	90100
1	59138780	1256	89782
1	59186705	1257	91107
1	59234265	1258	88828
1	59282458	1259	92485
1	59330451	1260	90524
1	59378542	1261	91637
1	59426133	1262	87768
1	59474390	1263	92591
1	59522365	1264	91213
1	59570149	1265	89623
1	59618657	1266	92909
1	59666337	1267	89358
1	59714384	1268	90100
1	59762204	1269	91001
1	59810464	1270	92114
1	59858696	1271	90630
1	59906862	1272	91584
1	59954253	1273	89517
1	60002981	1274	92379
1	60050226	1275	89040
1	60098503	1276	91107
1	60146814	1277	91425
1	60194425	1278	88934
1	60242572	1279	92273
1	60290340	1280	91001
1	60338581	1281	91319
1	60386464	1282	90259
1	60434063	1283	89570
1	60482443	1284	91001
1	60530609	1285	91478
1	60578548	1286	90206
1	60626101	1287	89464
1	60674336	1288	91849
1	60722254	1289	92273
1	60770381	1290	90365
1	60819051	1291	92803
1	60866562	1292	89676
1	60915174	1293	92061
1	60962760	1294	90524
1	61011308	1295	91001
1	61058912	1296	90683
1	61106862	1297	90365
1	61154678	1298	90895
1	61203195	1299	91584
1	61250917	1300	89941
1	61299068	1301	91743
1	61347040	1302	89941
1	61395018	1303	91531
1	61443305	1304	92750
1	61491138	1305	89305
1	61539245	1306	91690
1	61587257	1307	90577
1	61635249	1308	90524
1	61683229	1309	91531
1	61731352	1310	89782
1	61779538	1311	91902
1	61827388	1312	90206
1	61874786	1313	89570
1	61923296	1314	92644
1	61970871	1315	87662
1	62019497	1316	93863
1	62067128	1317	90683
1	62115082	1318	89994
1	62162831	1319	90312
1	62211142	1320	92114
1	62258850	1321	89517
1	62307573	1322	92697
1	62355154	1323	89888
1	62403251	1324	91160
1	62450794	1325	89411
1	62499437	1326	92697
1	62547515	1327	92326
1	62595552	1328	89676
1	62643759	1329	91478
1	62691421	1330	90259
1	62740100	1331	93333
1	62788301	1332	90471
1	62835951	1333	90471
1	62884162	1334	91107
1	62931781	1335	89994
1	62979855	1336	91319